 Entering Gaussian System, Link 0=g16
 Input=water_linked.gjf
 Output=water_linked.log
 Initial command:
 /Applications/GaussView6/gv/l1.exe "/Applications/Gaussview6/gv/Scratch/Gau-3710.inp" -scrdir="/Applications/Gaussview6/gv/Scratch/"
 Entering Link 1 = /Applications/GaussView6/gv/l1.exe PID=      3711.
  
 Copyright (c) 1988-2017, Gaussian, Inc.  All Rights Reserved.
  
 This is part of the Gaussian(R) 16 program.  It is based on
 the Gaussian(R) 09 system (copyright 2009, Gaussian, Inc.),
 the Gaussian(R) 03 system (copyright 2003, Gaussian, Inc.),
 the Gaussian(R) 98 system (copyright 1998, Gaussian, Inc.),
 the Gaussian(R) 94 system (copyright 1995, Gaussian, Inc.),
 the Gaussian 92(TM) system (copyright 1992, Gaussian, Inc.),
 the Gaussian 90(TM) system (copyright 1990, Gaussian, Inc.),
 the Gaussian 88(TM) system (copyright 1988, Gaussian, Inc.),
 the Gaussian 86(TM) system (copyright 1986, Carnegie Mellon
 University), and the Gaussian 82(TM) system (copyright 1983,
 Carnegie Mellon University). Gaussian is a federally registered
 trademark of Gaussian, Inc.
  
 This software contains proprietary and confidential information,
 including trade secrets, belonging to Gaussian, Inc.
  
 This software is provided under written license and may be
 used, copied, transmitted, or stored only in accord with that
 written license.
  
 The following legend is applicable only to US Government
 contracts under FAR:
  
                    RESTRICTED RIGHTS LEGEND
  
 Use, reproduction and disclosure by the US Government is
 subject to restrictions as set forth in subparagraphs (a)
 and (c) of the Commercial Computer Software - Restricted
 Rights clause in FAR 52.227-19.
  
 Gaussian, Inc.
 340 Quinnipiac St., Bldg. 40, Wallingford CT 06492
  
  
 ---------------------------------------------------------------
 Warning -- This program may not be used in any manner that
 competes with the business of Gaussian, Inc. or will provide
 assistance to any competitor of Gaussian, Inc.  The licensee
 of this program is prohibited from giving any competitor of
 Gaussian, Inc. access to this program.  By using this program,
 the user acknowledges that Gaussian, Inc. is engaged in the
 business of creating and licensing software in the field of
 computational chemistry and represents and warrants to the
 licensee that it is not a competitor of Gaussian, Inc. and that
 it will not use this program in any manner prohibited above.
 ---------------------------------------------------------------
  

 Cite this work as:
 Gaussian 16, Revision B.01,
 M. J. Frisch, G. W. Trucks, H. B. Schlegel, G. E. Scuseria, 
 M. A. Robb, J. R. Cheeseman, G. Scalmani, V. Barone, 
 G. A. Petersson, H. Nakatsuji, X. Li, M. Caricato, A. V. Marenich, 
 J. Bloino, B. G. Janesko, R. Gomperts, B. Mennucci, H. P. Hratchian, 
 J. V. Ortiz, A. F. Izmaylov, J. L. Sonnenberg, D. Williams-Young, 
 F. Ding, F. Lipparini, F. Egidi, J. Goings, B. Peng, A. Petrone, 
 T. Henderson, D. Ranasinghe, V. G. Zakrzewski, J. Gao, N. Rega, 
 G. Zheng, W. Liang, M. Hada, M. Ehara, K. Toyota, R. Fukuda, 
 J. Hasegawa, M. Ishida, T. Nakajima, Y. Honda, O. Kitao, H. Nakai, 
 T. Vreven, K. Throssell, J. A. Montgomery, Jr., J. E. Peralta, 
 F. Ogliaro, M. J. Bearpark, J. J. Heyd, E. N. Brothers, K. N. Kudin, 
 V. N. Staroverov, T. A. Keith, R. Kobayashi, J. Normand, 
 K. Raghavachari, A. P. Rendell, J. C. Burant, S. S. Iyengar, 
 J. Tomasi, M. Cossi, J. M. Millam, M. Klene, C. Adamo, R. Cammi, 
 J. W. Ochterski, R. L. Martin, K. Morokuma, O. Farkas, 
 J. B. Foresman, and D. J. Fox, Gaussian, Inc., Wallingford CT, 2016.
 
 ******************************************
 Gaussian 16:  EM64M-G16RevB.01 20-Dec-2017
                 8-Jun-2025 
 ******************************************
 %nprocshared=4
 Will use up to    4 processors via shared memory.
 %mem=4GB
 %chk=roughopt.chk
 ---------------------------------
 # HF/STO-3G opt geom=connectivity
 ---------------------------------
 1/18=20,19=15,38=1,57=2/1,3;
 2/9=110,12=2,17=6,18=5,40=1/2;
 3/6=3,11=9,25=1,30=1,71=1/1,2,3;
 4//1;
 5/5=2,38=5/2;
 6/7=2,8=2,9=2,10=2,28=1/1;
 7//1,2,3,16;
 1/18=20,19=15/3(2);
 2/9=110/2;
 99//99;
 2/9=110/2;
 3/6=3,11=9,25=1,30=1,71=1/1,2,3;
 4/5=5,16=3,69=1/1;
 5/5=2,38=5/2;
 7//1,2,3,16;
 1/18=20,19=15/3(-5);
 2/9=110/2;
 6/7=2,8=2,9=2,10=2,19=2,28=1/1;
 99/9=1/99;
 -------------------------------------------
 water HF/STO-3G rough geometry optimization
 -------------------------------------------
 Symbolic Z-matrix:
 Charge =  0 Multiplicity = 1
 O                     0.        0.2509    0. 
 H                     0.96      0.2509    0. 
 H                    -0.3205    1.1558    0. 
 

 GradGradGradGradGradGradGradGradGradGradGradGradGradGradGradGradGradGrad
 Berny optimization.
 Initialization pass.
                           ----------------------------
                           !    Initial Parameters    !
                           ! (Angstroms and Degrees)  !
 --------------------------                            --------------------------
 ! Name  Definition              Value          Derivative Info.                !
 --------------------------------------------------------------------------------
 ! R1    R(1,2)                  0.96           estimate D2E/DX2                !
 ! R2    R(1,3)                  0.96           estimate D2E/DX2                !
 ! A1    A(2,1,3)              109.5033         estimate D2E/DX2                !
 --------------------------------------------------------------------------------
 Trust Radius=3.00D-01 FncErr=1.00D-07 GrdErr=1.00D-07 EigMax=2.50D+02 EigMin=1.00D-04
 Number of steps in this run=     20 maximum allowed number of steps=    100.
 GradGradGradGradGradGradGradGradGradGradGradGradGradGradGradGradGradGrad

                          Input orientation:                          
 ---------------------------------------------------------------------
 Center     Atomic      Atomic             Coordinates (Angstroms)
 Number     Number       Type             X           Y           Z
 ---------------------------------------------------------------------
      1          8           0        0.000000    0.250900    0.000000
      2          1           0        0.960000    0.250900    0.000000
      3          1           0       -0.320500    1.155800    0.000000
 ---------------------------------------------------------------------
                    Distance matrix (angstroms):
                    1          2          3
     1  O    0.000000
     2  H    0.960000   0.000000
     3  H    0.959981   1.567968   0.000000
 Stoichiometry    H2O
 Framework group  CS[SG(H2O)]
 Deg. of freedom     3
 Full point group                 CS      NOp   2
 Largest Abelian subgroup         CS      NOp   2
 Largest concise Abelian subgroup C1      NOp   1
                         Standard orientation:                         
 ---------------------------------------------------------------------
 Center     Atomic      Atomic             Coordinates (Angstroms)
 Number     Number       Type             X           Y           Z
 ---------------------------------------------------------------------
      1          8           0        0.000000    0.110806    0.000000
      2          1           0        0.783984   -0.443241    0.000000
      3          1           0       -0.783984   -0.443209   -0.000000
 ---------------------------------------------------------------------
 Rotational constants (GHZ):         919.7680513         407.9317926         282.5959735
 Standard basis: STO-3G (5D, 7F)
 There are     6 symmetry adapted cartesian basis functions of A'  symmetry.
 There are     1 symmetry adapted cartesian basis functions of A"  symmetry.
 There are     6 symmetry adapted basis functions of A'  symmetry.
 There are     1 symmetry adapted basis functions of A"  symmetry.
     7 basis functions,    21 primitive gaussians,     7 cartesian basis functions
     5 alpha electrons        5 beta electrons
       nuclear repulsion energy         9.1571980034 Hartrees.
 NAtoms=    3 NActive=    3 NUniq=    3 SFac= 1.00D+00 NAtFMM=   60 NAOKFM=F Big=F
 Integral buffers will be    131072 words long.
 Raffenetti 1 integral format.
 Two-electron integral symmetry is turned on.
 One-electron integrals computed using PRISM.
 NBasis=     7 RedAO= T EigKep=  3.45D-01  NBF=     6     1
 NBsUse=     7 1.00D-06 EigRej= -1.00D+00 NBFU=     6     1
 ExpMin= 1.69D-01 ExpMax= 1.31D+02 ExpMxC= 1.31D+02 IAcc=3 IRadAn=         5 AccDes= 0.00D+00
 Harris functional with IExCor=  205 and IRadAn=       5 diagonalized for initial guess.
 HarFok:  IExCor=  205 AccDes= 0.00D+00 IRadAn=         5 IDoV= 1 UseB2=F ITyADJ=14
 ICtDFT=  3500011 ScaDFX=  1.000000  1.000000  1.000000  1.000000
 FoFCou: FMM=F IPFlag=           0 FMFlag=      100000 FMFlg1=           0
         NFxFlg=           0 DoJE=T BraDBF=F KetDBF=T FulRan=T
         wScrn=  0.000000 ICntrl=       500 IOpCl=  0 I1Cent=   200000004 NGrid=           0
         NMat0=    1 NMatS0=      1 NMatT0=    0 NMatD0=    1 NMtDS0=    0 NMtDT0=    0
 Petite list used in FoFCou.
 Initial guess orbital symmetries:
       Occupied  (A') (A') (A') (A') (A")
       Virtual   (A') (A')
 The electronic state of the initial guess is 1-A'.
 Keep R1 ints in memory in symmetry-blocked form, NReq=802952.
 Requested convergence on RMS density matrix=1.00D-08 within 128 cycles.
 Requested convergence on MAX density matrix=1.00D-06.
 Requested convergence on             energy=1.00D-06.
 No special actions if energy rises.
 SCF Done:  E(RHF) =  -74.9606990587     A.U. after    7 cycles
            NFock=  7  Conv=0.26D-09     -V/T= 2.0050

 **********************************************************************

            Population analysis using the SCF Density.

 **********************************************************************

 Orbital symmetries:
       Occupied  (A') (A') (A') (A') (A")
       Virtual   (A') (A')
 The electronic state is 1-A'.
 Alpha  occ. eigenvalues --  -20.23448  -1.26075  -0.62398  -0.44044  -0.38694
 Alpha virt. eigenvalues --    0.59290   0.75422
          Condensed to atoms (all electrons):
               1          2          3
     1  O    7.839254   0.266650   0.266651
     2  H    0.266650   0.591567  -0.044491
     3  H    0.266651  -0.044491   0.591559
 Mulliken charges:
               1
     1  O   -0.372556
     2  H    0.186274
     3  H    0.186281
 Sum of Mulliken charges =   0.00000
 Mulliken charges with hydrogens summed into heavy atoms:
               1
     1  O    0.000000
 Electronic spatial extent (au):  <R**2>=             17.8522
 Charge=              0.0000 electrons
 Dipole moment (field-independent basis, Debye):
    X=             -0.0000    Y=             -1.6888    Z=              0.0000  Tot=              1.6888
 Quadrupole moment (field-independent basis, Debye-Ang):
   XX=             -4.1955   YY=             -5.4609   ZZ=             -6.0921
   XY=             -0.0000   XZ=              0.0000   YZ=             -0.0000
 Traceless Quadrupole moment (field-independent basis, Debye-Ang):
   XX=              1.0540   YY=             -0.2114   ZZ=             -0.8426
   XY=             -0.0000   XZ=              0.0000   YZ=             -0.0000
 Octapole moment (field-independent basis, Debye-Ang**2):
  XXX=             -0.0000  YYY=             -0.1755  ZZZ=             -0.0000  XYY=              0.0000
  XXY=             -0.5891  XXZ=              0.0000  XZZ=             -0.0000  YZZ=             -0.0059
  YYZ=             -0.0000  XYZ=             -0.0000
 Hexadecapole moment (field-independent basis, Debye-Ang**3):
 XXXX=             -6.5599 YYYY=             -4.7117 ZZZZ=             -3.2294 XXXY=              0.0000
 XXXZ=             -0.0000 YYYX=              0.0000 YYYZ=              0.0000 ZZZX=             -0.0000
 ZZZY=              0.0000 XXYY=             -1.7003 XXZZ=             -1.8140 YYZZ=             -1.3519
 XXYZ=             -0.0000 YYXZ=             -0.0000 ZZXY=              0.0000
 N-N= 9.157198003358D+00 E-N=-1.969267144326D+02  KE= 7.458410619588D+01
 Symmetry A'   KE= 6.952664374386D+01
 Symmetry A"   KE= 5.057462452019D+00
 Calling FoFJK, ICntrl=      2127 FMM=F ISym2X=1 I1Cent= 0 IOpClX= 0 NMat=1 NMatS=1 NMatT=0.
 ***** Axes restored to original set *****
 -------------------------------------------------------------------
 Center     Atomic                   Forces (Hartrees/Bohr)
 Number     Number              X              Y              Z
 -------------------------------------------------------------------
      1        8          -0.042115679   -0.059635379   -0.000000000
      2        1           0.030931037    0.022830240   -0.000000000
      3        1           0.011184642    0.036805140    0.000000000
 -------------------------------------------------------------------
 Cartesian Forces:  Max     0.059635379 RMS     0.030345734

 GradGradGradGradGradGradGradGradGradGradGradGradGradGradGradGradGradGrad
 Berny optimization.
 FormGI is forming the generalized inverse of G from B-inverse, IUseBI=4.
 Internal  Forces:  Max     0.041417184 RMS     0.034787865
 Search for a local minimum.
 Step number   1 out of a maximum of   20
 All quantities printed in internal units (Hartrees-Bohrs-Radians)
 Mixed Optimization -- RFO/linear search
 Second derivative matrix not updated -- first step.
 The second derivative matrix:
                          R1        R2        A1
           R1           0.55473
           R2           0.00000   0.55477
           A1           0.00000   0.00000   0.16000
 ITU=  0
     Eigenvalues ---    0.16000   0.55473   0.55477
 RFO step:  Lambda=-1.32716479D-02 EMin= 1.60000000D-01
 Linear search not attempted -- first point.
 Iteration  1 RMS(Cart)=  0.09789774 RMS(Int)=  0.02721336
 Iteration  2 RMS(Cart)=  0.03083714 RMS(Int)=  0.00041474
 Iteration  3 RMS(Cart)=  0.00029739 RMS(Int)=  0.00000003
 Iteration  4 RMS(Cart)=  0.00000003 RMS(Int)=  0.00000000
 ClnCor:  largest displacement from symmetrization is 1.12D-15 for atom     2.
 Variable       Old X    -DE/DX   Delta X   Delta X   Delta X     New X
                                 (Linear)    (Quad)   (Total)
    R1        1.81414   0.03093   0.00000   0.05446   0.05446   1.86859
    R2        1.81410   0.03096   0.00000   0.05450   0.05450   1.86860
    A1        1.91119  -0.04142   0.00000  -0.23903  -0.23903   1.67216
         Item               Value     Threshold  Converged?
 Maximum Force            0.041417     0.000450     NO 
 RMS     Force            0.034788     0.000300     NO 
 Maximum Displacement     0.117130     0.001800     NO 
 RMS     Displacement     0.124160     0.001200     NO 
 Predicted change in Energy=-7.054355D-03
 GradGradGradGradGradGradGradGradGradGradGradGradGradGradGradGradGradGrad

                          Input orientation:                          
 ---------------------------------------------------------------------
 Center     Atomic      Atomic             Coordinates (Angstroms)
 Number     Number       Type             X           Y           Z
 ---------------------------------------------------------------------
      1          8           0       -0.041872    0.191633   -0.000000
      2          1           0        0.939890    0.309536   -0.000000
      3          1           0       -0.258518    1.156431    0.000000
 ---------------------------------------------------------------------
                    Distance matrix (angstroms):
                    1          2          3
     1  O    0.000000
     2  H    0.988817   0.000000
     3  H    0.988822   1.467451   0.000000
 Stoichiometry    H2O
 Framework group  CS[SG(H2O)]
 Deg. of freedom     3
 Full point group                 CS      NOp   2
 Largest Abelian subgroup         CS      NOp   2
 Largest concise Abelian subgroup C1      NOp   1
                         Standard orientation:                         
 ---------------------------------------------------------------------
 Center     Atomic      Atomic             Coordinates (Angstroms)
 Number     Number       Type             X           Y           Z
 ---------------------------------------------------------------------
      1          8           0       -0.000000    0.132576   -0.000000
      2          1           0        0.733725   -0.530300   -0.000000
      3          1           0       -0.733725   -0.530309    0.000000
 ---------------------------------------------------------------------
 Rotational constants (GHZ):         642.5053439         465.7307063         270.0096857
 Standard basis: STO-3G (5D, 7F)
 There are     6 symmetry adapted cartesian basis functions of A'  symmetry.
 There are     1 symmetry adapted cartesian basis functions of A"  symmetry.
 There are     6 symmetry adapted basis functions of A'  symmetry.
 There are     1 symmetry adapted basis functions of A"  symmetry.
     7 basis functions,    21 primitive gaussians,     7 cartesian basis functions
     5 alpha electrons        5 beta electrons
       nuclear repulsion energy         8.9231796410 Hartrees.
 NAtoms=    3 NActive=    3 NUniq=    3 SFac= 1.00D+00 NAtFMM=   60 NAOKFM=F Big=F
 Integral buffers will be    131072 words long.
 Raffenetti 1 integral format.
 Two-electron integral symmetry is turned on.
 One-electron integrals computed using PRISM.
 NBasis=     7 RedAO= T EigKep=  3.63D-01  NBF=     6     1
 NBsUse=     7 1.00D-06 EigRej= -1.00D+00 NBFU=     6     1
 Initial guess from the checkpoint file:  "roughopt.chk"
 B after Tr=    -0.000000   -0.000000    0.000000
         Rot=    1.000000    0.000000   -0.000000   -0.000009 Ang=  -0.00 deg.
 Initial guess orbital symmetries:
       Occupied  (A') (A') (A') (A') (A")
       Virtual   (A') (A')
 ExpMin= 1.69D-01 ExpMax= 1.31D+02 ExpMxC= 1.31D+02 IAcc=3 IRadAn=         5 AccDes= 0.00D+00
 Harris functional with IExCor=  205 and IRadAn=       5 diagonalized for initial guess.
 HarFok:  IExCor=  205 AccDes= 0.00D+00 IRadAn=         5 IDoV= 1 UseB2=F ITyADJ=14
 ICtDFT=  3500011 ScaDFX=  1.000000  1.000000  1.000000  1.000000
 FoFCou: FMM=F IPFlag=           0 FMFlag=      100000 FMFlg1=           0
         NFxFlg=           0 DoJE=T BraDBF=F KetDBF=T FulRan=T
         wScrn=  0.000000 ICntrl=       500 IOpCl=  0 I1Cent=   200000004 NGrid=           0
         NMat0=    1 NMatS0=      1 NMatT0=    0 NMatD0=    1 NMtDS0=    0 NMtDT0=    0
 Petite list used in FoFCou.
 Keep R1 ints in memory in symmetry-blocked form, NReq=802952.
 Requested convergence on RMS density matrix=1.00D-08 within 128 cycles.
 Requested convergence on MAX density matrix=1.00D-06.
 Requested convergence on             energy=1.00D-06.
 No special actions if energy rises.
 SCF Done:  E(RHF) =  -74.9650715310     A.U. after    8 cycles
            NFock=  8  Conv=0.13D-09     -V/T= 2.0059
 Calling FoFJK, ICntrl=      2127 FMM=F ISym2X=1 I1Cent= 0 IOpClX= 0 NMat=1 NMatS=1 NMatT=0.
 ***** Axes restored to original set *****
 -------------------------------------------------------------------
 Center     Atomic                   Forces (Hartrees/Bohr)
 Number     Number              X              Y              Z
 -------------------------------------------------------------------
      1        8           0.007583613    0.010740775   -0.000000000
      2        1           0.005044668   -0.011611988    0.000000000
      3        1          -0.012628282    0.000871213   -0.000000000
 -------------------------------------------------------------------
 Cartesian Forces:  Max     0.012628282 RMS     0.007404165

 GradGradGradGradGradGradGradGradGradGradGradGradGradGradGradGradGradGrad
 Berny optimization.
 Using GEDIIS/GDIIS optimizer.
 FormGI is forming the generalized inverse of G from B-inverse, IUseBI=4.
 Internal  Forces:  Max     0.022667248 RMS     0.013416654
 Search for a local minimum.
 Step number   2 out of a maximum of   20
 All quantities printed in internal units (Hartrees-Bohrs-Radians)
 Mixed Optimization -- RFO/linear search
 Update second derivatives using D2CorX and points    1    2
 DE= -4.37D-03 DEPred=-7.05D-03 R= 6.20D-01
 TightC=F SS=  1.41D+00  RLast= 2.51D-01 DXNew= 5.0454D-01 7.5342D-01
 Trust test= 6.20D-01 RLast= 2.51D-01 DXMaxT set to 5.05D-01
 The second derivative matrix:
                          R1        R2        A1
           R1           0.52210
           R2          -0.03264   0.52212
           A1          -0.00274  -0.00278   0.26684
 ITU=  1  0
 Use linear search instead of GDIIS.
     Eigenvalues ---    0.26678   0.48953   0.55475
 RFO step:  Lambda=-5.86335371D-04 EMin= 2.66775907D-01
 Quartic linear search produced a step of -0.25885.
 Iteration  1 RMS(Cart)=  0.05222189 RMS(Int)=  0.00126639
 Iteration  2 RMS(Cart)=  0.00096544 RMS(Int)=  0.00000019
 Iteration  3 RMS(Cart)=  0.00000021 RMS(Int)=  0.00000000
 ClnCor:  largest displacement from symmetrization is 4.97D-16 for atom     3.
 Variable       Old X    -DE/DX   Delta X   Delta X   Delta X     New X
                                 (Linear)    (Quad)   (Total)
    R1        1.86859   0.00362  -0.01410   0.02243   0.00834   1.87693
    R2        1.86860   0.00362  -0.01411   0.02244   0.00833   1.87693
    A1        1.67216   0.02267   0.06187   0.01911   0.08099   1.75315
         Item               Value     Threshold  Converged?
 Maximum Force            0.022667     0.000450     NO 
 RMS     Force            0.013417     0.000300     NO 
 Maximum Displacement     0.055686     0.001800     NO 
 RMS     Displacement     0.051827     0.001200     NO 
 Predicted change in Energy=-9.907241D-04
 GradGradGradGradGradGradGradGradGradGradGradGradGradGradGradGradGradGrad

                          Input orientation:                          
 ---------------------------------------------------------------------
 Center     Atomic      Atomic             Coordinates (Angstroms)
 Number     Number       Type             X           Y           Z
 ---------------------------------------------------------------------
      1          8           0       -0.031322    0.206565   -0.000000
      2          1           0        0.958807    0.284974    0.000000
      3          1           0       -0.287985    1.166061   -0.000000
 ---------------------------------------------------------------------
                    Distance matrix (angstroms):
                    1          2          3
     1  O    0.000000
     2  H    0.993229   0.000000
     3  H    0.993231   1.526697   0.000000
 Stoichiometry    H2O
 Framework group  CS[SG(H2O)]
 Deg. of freedom     3
 Full point group                 CS      NOp   2
 Largest Abelian subgroup         CS      NOp   2
 Largest concise Abelian subgroup C1      NOp   1
                         Standard orientation:                         
 ---------------------------------------------------------------------
 Center     Atomic      Atomic             Coordinates (Angstroms)
 Number     Number       Type             X           Y           Z
 ---------------------------------------------------------------------
      1          8           0        0.000000    0.127091    0.000000
      2          1           0        0.763349   -0.508363    0.000000
      3          1           0       -0.763349   -0.508366    0.000000
 ---------------------------------------------------------------------
 Rotational constants (GHZ):         699.1598258         430.2850325         266.3591818
 Standard basis: STO-3G (5D, 7F)
 There are     6 symmetry adapted cartesian basis functions of A'  symmetry.
 There are     1 symmetry adapted cartesian basis functions of A"  symmetry.
 There are     6 symmetry adapted basis functions of A'  symmetry.
 There are     1 symmetry adapted basis functions of A"  symmetry.
     7 basis functions,    21 primitive gaussians,     7 cartesian basis functions
     5 alpha electrons        5 beta electrons
       nuclear repulsion energy         8.8711639793 Hartrees.
 NAtoms=    3 NActive=    3 NUniq=    3 SFac= 1.00D+00 NAtFMM=   60 NAOKFM=F Big=F
 Integral buffers will be    131072 words long.
 Raffenetti 1 integral format.
 Two-electron integral symmetry is turned on.
 One-electron integrals computed using PRISM.
 NBasis=     7 RedAO= T EigKep=  3.66D-01  NBF=     6     1
 NBsUse=     7 1.00D-06 EigRej= -1.00D+00 NBFU=     6     1
 Initial guess from the checkpoint file:  "roughopt.chk"
 B after Tr=     0.000000    0.000000   -0.000000
         Rot=    1.000000   -0.000000    0.000000    0.000001 Ang=   0.00 deg.
 Initial guess orbital symmetries:
       Occupied  (A') (A') (A') (A') (A")
       Virtual   (A') (A')
 ExpMin= 1.69D-01 ExpMax= 1.31D+02 ExpMxC= 1.31D+02 IAcc=3 IRadAn=         5 AccDes= 0.00D+00
 Harris functional with IExCor=  205 and IRadAn=       5 diagonalized for initial guess.
 HarFok:  IExCor=  205 AccDes= 0.00D+00 IRadAn=         5 IDoV= 1 UseB2=F ITyADJ=14
 ICtDFT=  3500011 ScaDFX=  1.000000  1.000000  1.000000  1.000000
 FoFCou: FMM=F IPFlag=           0 FMFlag=      100000 FMFlg1=           0
         NFxFlg=           0 DoJE=T BraDBF=F KetDBF=T FulRan=T
         wScrn=  0.000000 ICntrl=       500 IOpCl=  0 I1Cent=   200000004 NGrid=           0
         NMat0=    1 NMatS0=      1 NMatT0=    0 NMatD0=    1 NMtDS0=    0 NMtDT0=    0
 Petite list used in FoFCou.
 Keep R1 ints in memory in symmetry-blocked form, NReq=802952.
 Requested convergence on RMS density matrix=1.00D-08 within 128 cycles.
 Requested convergence on MAX density matrix=1.00D-06.
 Requested convergence on             energy=1.00D-06.
 No special actions if energy rises.
 SCF Done:  E(RHF) =  -74.9658569996     A.U. after    6 cycles
            NFock=  6  Conv=0.22D-08     -V/T= 2.0061
 Calling FoFJK, ICntrl=      2127 FMM=F ISym2X=1 I1Cent= 0 IOpClX= 0 NMat=1 NMatS=1 NMatT=0.
 ***** Axes restored to original set *****
 -------------------------------------------------------------------
 Center     Atomic                   Forces (Hartrees/Bohr)
 Number     Number              X              Y              Z
 -------------------------------------------------------------------
      1        8           0.002206450    0.003125349    0.000000000
      2        1          -0.004822331    0.001066457    0.000000000
      3        1           0.002615881   -0.004191805   -0.000000000
 -------------------------------------------------------------------
 Cartesian Forces:  Max     0.004822331 RMS     0.002655027

 GradGradGradGradGradGradGradGradGradGradGradGradGradGradGradGradGradGrad
 Berny optimization.
 Using GEDIIS/GDIIS optimizer.
 FormGI is forming the generalized inverse of G from B-inverse, IUseBI=4.
 Internal  Forces:  Max     0.004725405 RMS     0.004162566
 Search for a local minimum.
 Step number   3 out of a maximum of   20
 All quantities printed in internal units (Hartrees-Bohrs-Radians)
 Mixed Optimization -- RFO/linear search
 Update second derivatives using D2CorX and points    1    2    3
 DE= -7.85D-04 DEPred=-9.91D-04 R= 7.93D-01
 TightC=F SS=  1.41D+00  RLast= 8.18D-02 DXNew= 8.4853D-01 2.4552D-01
 Trust test= 7.93D-01 RLast= 8.18D-02 DXMaxT set to 5.05D-01
 The second derivative matrix:
                          R1        R2        A1
           R1           0.57316
           R2           0.01843   0.57321
           A1           0.04216   0.04215   0.30467
 ITU=  1  1  0
 Use linear search instead of GDIIS.
     Eigenvalues ---    0.29278   0.55475   0.60351
 RFO step:  Lambda=-4.81360792D-05 EMin= 2.92780474D-01
 Quartic linear search produced a step of -0.14033.
 Iteration  1 RMS(Cart)=  0.00823549 RMS(Int)=  0.00001939
 Iteration  2 RMS(Cart)=  0.00001439 RMS(Int)=  0.00000000
 Iteration  3 RMS(Cart)=  0.00000000 RMS(Int)=  0.00000000
 ClnCor:  largest displacement from symmetrization is 1.11D-16 for atom     3.
 Variable       Old X    -DE/DX   Delta X   Delta X   Delta X     New X
                                 (Linear)    (Quad)   (Total)
    R1        1.87693  -0.00472  -0.00117  -0.00632  -0.00749   1.86944
    R2        1.87693  -0.00473  -0.00117  -0.00632  -0.00749   1.86944
    A1        1.75315  -0.00271  -0.01136   0.00416  -0.00721   1.74594
         Item               Value     Threshold  Converged?
 Maximum Force            0.004725     0.000450     NO 
 RMS     Force            0.004163     0.000300     NO 
 Maximum Displacement     0.008302     0.001800     NO 
 RMS     Displacement     0.008230     0.001200     NO 
 Predicted change in Energy=-4.464644D-05
 GradGradGradGradGradGradGradGradGradGradGradGradGradGradGradGradGradGrad

                          Input orientation:                          
 ---------------------------------------------------------------------
 Center     Atomic      Atomic             Coordinates (Angstroms)
 Number     Number       Type             X           Y           Z
 ---------------------------------------------------------------------
      1          8           0       -0.031399    0.206457   -0.000000
      2          1           0        0.954491    0.288106   -0.000000
      3          1           0       -0.283592    1.163037    0.000000
 ---------------------------------------------------------------------
                    Distance matrix (angstroms):
                    1          2          3
     1  O    0.000000
     2  H    0.989265   0.000000
     3  H    0.989265   1.516032   0.000000
 Stoichiometry    H2O
 Framework group  CS[SG(H2O)]
 Deg. of freedom     3
 Full point group                 CS      NOp   2
 Largest Abelian subgroup         CS      NOp   2
 Largest concise Abelian subgroup C1      NOp   1
                         Standard orientation:                         
 ---------------------------------------------------------------------
 Center     Atomic      Atomic             Coordinates (Angstroms)
 Number     Number       Type             X           Y           Z
 ---------------------------------------------------------------------
      1          8           0       -0.000000    0.127131    0.000000
      2          1           0        0.758016   -0.508524    0.000000
      3          1           0       -0.758016   -0.508524   -0.000000
 ---------------------------------------------------------------------
 Rotational constants (GHZ):         698.7211810         436.3604710         268.6100186
 Standard basis: STO-3G (5D, 7F)
 There are     6 symmetry adapted cartesian basis functions of A'  symmetry.
 There are     1 symmetry adapted cartesian basis functions of A"  symmetry.
 There are     6 symmetry adapted basis functions of A'  symmetry.
 There are     1 symmetry adapted basis functions of A"  symmetry.
     7 basis functions,    21 primitive gaussians,     7 cartesian basis functions
     5 alpha electrons        5 beta electrons
       nuclear repulsion energy         8.9077639968 Hartrees.
 NAtoms=    3 NActive=    3 NUniq=    3 SFac= 1.00D+00 NAtFMM=   60 NAOKFM=F Big=F
 Integral buffers will be    131072 words long.
 Raffenetti 1 integral format.
 Two-electron integral symmetry is turned on.
 One-electron integrals computed using PRISM.
 NBasis=     7 RedAO= T EigKep=  3.63D-01  NBF=     6     1
 NBsUse=     7 1.00D-06 EigRej= -1.00D+00 NBFU=     6     1
 Initial guess from the checkpoint file:  "roughopt.chk"
 B after Tr=    -0.000000   -0.000000    0.000000
         Rot=    1.000000    0.000000    0.000000    0.000001 Ang=   0.00 deg.
 Initial guess orbital symmetries:
       Occupied  (A') (A') (A') (A') (A")
       Virtual   (A') (A')
 Keep R1 ints in memory in symmetry-blocked form, NReq=802952.
 Requested convergence on RMS density matrix=1.00D-08 within 128 cycles.
 Requested convergence on MAX density matrix=1.00D-06.
 Requested convergence on             energy=1.00D-06.
 No special actions if energy rises.
 SCF Done:  E(RHF) =  -74.9659011708     A.U. after    6 cycles
            NFock=  6  Conv=0.22D-10     -V/T= 2.0060
 Calling FoFJK, ICntrl=      2127 FMM=F ISym2X=1 I1Cent= 0 IOpClX= 0 NMat=1 NMatS=1 NMatT=0.
 ***** Axes restored to original set *****
 -------------------------------------------------------------------
 Center     Atomic                   Forces (Hartrees/Bohr)
 Number     Number              X              Y              Z
 -------------------------------------------------------------------
      1        8          -0.000132093   -0.000187211   -0.000000000
      2        1           0.000162602    0.000025286   -0.000000000
      3        1          -0.000030508    0.000161925    0.000000000
 -------------------------------------------------------------------
 Cartesian Forces:  Max     0.000187211 RMS     0.000108896

 GradGradGradGradGradGradGradGradGradGradGradGradGradGradGradGradGradGrad
 Berny optimization.
 Using GEDIIS/GDIIS optimizer.
 FormGI is forming the generalized inverse of G from B-inverse, IUseBI=4.
 Internal  Forces:  Max     0.000164352 RMS     0.000134705
 Search for a local minimum.
 Step number   4 out of a maximum of   20
 All quantities printed in internal units (Hartrees-Bohrs-Radians)
 Mixed Optimization -- En-DIIS/RFO-DIIS
 Update second derivatives using D2CorX and points    1    2    3    4
 DE= -4.42D-05 DEPred=-4.46D-05 R= 9.89D-01
 TightC=F SS=  1.41D+00  RLast= 1.28D-02 DXNew= 8.4853D-01 3.8442D-02
 Trust test= 9.89D-01 RLast= 1.28D-02 DXMaxT set to 5.05D-01
 The second derivative matrix:
                          R1        R2        A1
           R1           0.58773
           R2           0.03301   0.58781
           A1           0.03301   0.03298   0.30434
 ITU=  1  1  1  0
 Use linear search instead of GDIIS.
     Eigenvalues ---    0.29761   0.55475   0.62752
 RFO step:  Lambda=-3.51423349D-08 EMin= 2.97605325D-01
 Quartic linear search produced a step of -0.02460.
 Iteration  1 RMS(Cart)=  0.00016364 RMS(Int)=  0.00000001
 Iteration  2 RMS(Cart)=  0.00000001 RMS(Int)=  0.00000000
 ClnCor:  largest displacement from symmetrization is 4.97D-16 for atom     2.
 Variable       Old X    -DE/DX   Delta X   Delta X   Delta X     New X
                                 (Linear)    (Quad)   (Total)
    R1        1.86944   0.00016   0.00018   0.00009   0.00027   1.86971
    R2        1.86944   0.00016   0.00018   0.00009   0.00027   1.86971
    A1        1.74594  -0.00002   0.00018  -0.00031  -0.00013   1.74581
         Item               Value     Threshold  Converged?
 Maximum Force            0.000164     0.000450     YES
 RMS     Force            0.000135     0.000300     YES
 Maximum Displacement     0.000155     0.001800     YES
 RMS     Displacement     0.000164     0.001200     YES
 Predicted change in Energy=-4.604196D-08
 Optimization completed.
    -- Stationary point found.
                           ----------------------------
                           !   Optimized Parameters   !
                           ! (Angstroms and Degrees)  !
 --------------------------                            --------------------------
 ! Name  Definition              Value          Derivative Info.                !
 --------------------------------------------------------------------------------
 ! R1    R(1,2)                  0.9893         -DE/DX =    0.0002              !
 ! R2    R(1,3)                  0.9893         -DE/DX =    0.0002              !
 ! A1    A(2,1,3)              100.0351         -DE/DX =    0.0                 !
 --------------------------------------------------------------------------------
 GradGradGradGradGradGradGradGradGradGradGradGradGradGradGradGradGradGrad

                          Input orientation:                          
 ---------------------------------------------------------------------
 Center     Atomic      Atomic             Coordinates (Angstroms)
 Number     Number       Type             X           Y           Z
 ---------------------------------------------------------------------
      1          8           0       -0.031399    0.206457   -0.000000
      2          1           0        0.954491    0.288106   -0.000000
      3          1           0       -0.283592    1.163037    0.000000
 ---------------------------------------------------------------------
                    Distance matrix (angstroms):
                    1          2          3
     1  O    0.000000
     2  H    0.989265   0.000000
     3  H    0.989265   1.516032   0.000000
 Stoichiometry    H2O
 Framework group  CS[SG(H2O)]
 Deg. of freedom     3
 Full point group                 CS      NOp   2
 Largest Abelian subgroup         CS      NOp   2
 Largest concise Abelian subgroup C1      NOp   1
                         Standard orientation:                         
 ---------------------------------------------------------------------
 Center     Atomic      Atomic             Coordinates (Angstroms)
 Number     Number       Type             X           Y           Z
 ---------------------------------------------------------------------
      1          8           0       -0.000000    0.127131   -0.000000
      2          1           0        0.758016   -0.508524    0.000000
      3          1           0       -0.758016   -0.508524   -0.000000
 ---------------------------------------------------------------------
 Rotational constants (GHZ):         698.7211810         436.3604710         268.6100186

 **********************************************************************

            Population analysis using the SCF Density.

 **********************************************************************

 Orbital symmetries:
       Occupied  (A') (A') (A') (A') (A")
       Virtual   (A') (A')
 The electronic state is 1-A'.
 Alpha  occ. eigenvalues --  -20.25155  -1.25761  -0.59394  -0.45973  -0.39262
 Alpha virt. eigenvalues --    0.58192   0.69286
          Condensed to atoms (all electrons):
               1          2          3
     1  O    7.822830   0.253918   0.253918
     2  H    0.253918   0.626169  -0.045420
     3  H    0.253918  -0.045420   0.626169
 Mulliken charges:
               1
     1  O   -0.330666
     2  H    0.165333
     3  H    0.165333
 Sum of Mulliken charges =  -0.00000
 Mulliken charges with hydrogens summed into heavy atoms:
               1
     1  O   -0.000000
 Electronic spatial extent (au):  <R**2>=             18.2666
 Charge=             -0.0000 electrons
 Dipole moment (field-independent basis, Debye):
    X=             -0.0000    Y=             -1.7094    Z=             -0.0000  Tot=              1.7094
 Quadrupole moment (field-independent basis, Debye-Ang):
   XX=             -4.4854   YY=             -5.3333   ZZ=             -6.1255
   XY=             -0.0000   XZ=             -0.0000   YZ=              0.0000
 Traceless Quadrupole moment (field-independent basis, Debye-Ang):
   XX=              0.8294   YY=             -0.0186   ZZ=             -0.8108
   XY=             -0.0000   XZ=             -0.0000   YZ=              0.0000
 Octapole moment (field-independent basis, Debye-Ang**2):
  XXX=             -0.0000  YYY=             -0.1746  ZZZ=             -0.0000  XYY=              0.0000
  XXY=             -0.5314  XXZ=             -0.0000  XZZ=             -0.0000  YZZ=              0.0191
  YYZ=             -0.0000  XYZ=              0.0000
 Hexadecapole moment (field-independent basis, Debye-Ang**3):
 XXXX=             -6.7323 YYYY=             -5.2185 ZZZZ=             -3.2652 XXXY=              0.0000
 XXXZ=             -0.0000 YYYX=              0.0000 YYYZ=              0.0000 ZZZX=             -0.0000
 ZZZY=              0.0000 XXYY=             -1.7388 XXZZ=             -1.8082 YYZZ=             -1.4595
 XXYZ=              0.0000 YYXZ=             -0.0000 ZZXY=              0.0000
 N-N= 8.907763996843D+00 E-N=-1.963553475079D+02  KE= 7.451890803358D+01
 Symmetry A'   KE= 6.946144558156D+01
 Symmetry A"   KE= 5.057462452019D+00
 1\1\GINC-PHILIP-KOCHERILS-MACBOOK-PRO\FOpt\RHF\STO-3G\H2O1\PKOCHERIL\0
 8-Jun-2025\0\\# HF/STO-3G opt geom=connectivity\\water HF/STO-3G rough
  geometry optimization\\0,1\O,-0.0313992892,0.2064570949,0.\H,0.954490
 9748,0.2881060558,0.\H,-0.2835916856,1.1630368493,0.\\Version=EM64M-G1
 6RevB.01\State=1-A'\HF=-74.9659012\RMSD=2.168e-11\RMSF=1.089e-04\Dipol
 e=0.3881216,0.5492167,0.\Quadrupole=0.4066401,0.196156,-0.6027961,-0.2
 971338,0.,0.\PG=CS [SG(H2O1)]\\@


 TIME IS NATURE'S WAY OF MAKING SURE EVERYTHING
 DOESN'T HAPPEN AT ONCE.
                     - WOODY ALLEN
 Job cpu time:       0 days  0 hours  0 minutes  1.9 seconds.
 Elapsed time:       0 days  0 hours  0 minutes  1.5 seconds.
 File lengths (MBytes):  RWF=      6 Int=      0 D2E=      0 Chk=      1 Scr=      1
 Normal termination of Gaussian 16 at Sun Jun  8 14:55:24 2025.
 Initial command:
 /Applications/GaussView6/gv/l1.exe "/Applications/Gaussview6/gv/Scratch/Gau-3710.inp" -scrdir="/Applications/Gaussview6/gv/Scratch/"
 Entering Link 1 = /Applications/GaussView6/gv/l1.exe PID=      3714.
  
 Copyright (c) 1988-2017, Gaussian, Inc.  All Rights Reserved.
  
 This is part of the Gaussian(R) 16 program.  It is based on
 the Gaussian(R) 09 system (copyright 2009, Gaussian, Inc.),
 the Gaussian(R) 03 system (copyright 2003, Gaussian, Inc.),
 the Gaussian(R) 98 system (copyright 1998, Gaussian, Inc.),
 the Gaussian(R) 94 system (copyright 1995, Gaussian, Inc.),
 the Gaussian 92(TM) system (copyright 1992, Gaussian, Inc.),
 the Gaussian 90(TM) system (copyright 1990, Gaussian, Inc.),
 the Gaussian 88(TM) system (copyright 1988, Gaussian, Inc.),
 the Gaussian 86(TM) system (copyright 1986, Carnegie Mellon
 University), and the Gaussian 82(TM) system (copyright 1983,
 Carnegie Mellon University). Gaussian is a federally registered
 trademark of Gaussian, Inc.
  
 This software contains proprietary and confidential information,
 including trade secrets, belonging to Gaussian, Inc.
  
 This software is provided under written license and may be
 used, copied, transmitted, or stored only in accord with that
 written license.
  
 The following legend is applicable only to US Government
 contracts under FAR:
  
                    RESTRICTED RIGHTS LEGEND
  
 Use, reproduction and disclosure by the US Government is
 subject to restrictions as set forth in subparagraphs (a)
 and (c) of the Commercial Computer Software - Restricted
 Rights clause in FAR 52.227-19.
  
 Gaussian, Inc.
 340 Quinnipiac St., Bldg. 40, Wallingford CT 06492
  
  
 ---------------------------------------------------------------
 Warning -- This program may not be used in any manner that
 competes with the business of Gaussian, Inc. or will provide
 assistance to any competitor of Gaussian, Inc.  The licensee
 of this program is prohibited from giving any competitor of
 Gaussian, Inc. access to this program.  By using this program,
 the user acknowledges that Gaussian, Inc. is engaged in the
 business of creating and licensing software in the field of
 computational chemistry and represents and warrants to the
 licensee that it is not a competitor of Gaussian, Inc. and that
 it will not use this program in any manner prohibited above.
 ---------------------------------------------------------------
  

 Cite this work as:
 Gaussian 16, Revision B.01,
 M. J. Frisch, G. W. Trucks, H. B. Schlegel, G. E. Scuseria, 
 M. A. Robb, J. R. Cheeseman, G. Scalmani, V. Barone, 
 G. A. Petersson, H. Nakatsuji, X. Li, M. Caricato, A. V. Marenich, 
 J. Bloino, B. G. Janesko, R. Gomperts, B. Mennucci, H. P. Hratchian, 
 J. V. Ortiz, A. F. Izmaylov, J. L. Sonnenberg, D. Williams-Young, 
 F. Ding, F. Lipparini, F. Egidi, J. Goings, B. Peng, A. Petrone, 
 T. Henderson, D. Ranasinghe, V. G. Zakrzewski, J. Gao, N. Rega, 
 G. Zheng, W. Liang, M. Hada, M. Ehara, K. Toyota, R. Fukuda, 
 J. Hasegawa, M. Ishida, T. Nakajima, Y. Honda, O. Kitao, H. Nakai, 
 T. Vreven, K. Throssell, J. A. Montgomery, Jr., J. E. Peralta, 
 F. Ogliaro, M. J. Bearpark, J. J. Heyd, E. N. Brothers, K. N. Kudin, 
 V. N. Staroverov, T. A. Keith, R. Kobayashi, J. Normand, 
 K. Raghavachari, A. P. Rendell, J. C. Burant, S. S. Iyengar, 
 J. Tomasi, M. Cossi, J. M. Millam, M. Klene, C. Adamo, R. Cammi, 
 J. W. Ochterski, R. L. Martin, K. Morokuma, O. Farkas, 
 J. B. Foresman, and D. J. Fox, Gaussian, Inc., Wallingford CT, 2016.
 
 ******************************************
 Gaussian 16:  EM64M-G16RevB.01 20-Dec-2017
                 8-Jun-2025 
 ******************************************
 %nprocshared=4
 Will use up to    4 processors via shared memory.
 %mem=4GB
 %oldchk=roughopt.chk
 %chk=optfreq.chk
 Copying data from "roughopt.chk" to current chk file "optfreq.chk"
 IOpt=  2 FromEx=T IUOpen= 4 IOptOp= 5 NList=   0 IFRang= 0 IUIn= 4 IUOut= 2.
 -----------------------------------------
 # B3LYP/6-31G(d,p) opt freq geom=allcheck
 -----------------------------------------
 1/18=20,19=15,26=3,29=7,38=1/1,3;
 2/9=110,12=2,40=1/2;
 3/5=1,6=6,7=101,11=2,14=-4,25=1,30=1,71=1,74=-5/1,2,3;
 4//1;
 5/5=2,38=5/2;
 6/7=2,8=2,9=2,10=2,28=1/1;
 7//1,2,3,16;
 1/18=20,19=15,26=3/3(2);
 2/9=110/2;
 99//99;
 2/9=110/2;
 3/5=1,6=6,7=101,11=2,14=-2,25=1,30=1,71=1,74=-5/1,2,3;
 4/5=5,16=3,69=1/1;
 5/5=2,38=5/2;
 7//1,2,3,16;
 1/18=20,19=15,26=3/3(-5);
 2/9=110/2;
 6/7=2,8=2,9=2,10=2,19=2,28=1/1;
 99/9=1/99;
 Structure from the checkpoint file:  "optfreq.chk"
 -------------------------------------------
 water HF/STO-3G rough geometry optimization
 -------------------------------------------
 Charge =  0 Multiplicity = 1
 Redundant internal coordinates found in file.  (old form).
 O,0,-0.0313992892,0.2064570949,0.
 H,0,0.9544909748,0.2881060558,0.
 H,0,-0.2835916856,1.1630368493,0.
 Recover connectivity data from disk.

 GradGradGradGradGradGradGradGradGradGradGradGradGradGradGradGradGradGrad
 Berny optimization.
 Initialization pass.
                           ----------------------------
                           !    Initial Parameters    !
                           ! (Angstroms and Degrees)  !
 --------------------------                            --------------------------
 ! Name  Definition              Value          Derivative Info.                !
 --------------------------------------------------------------------------------
 ! R1    R(1,2)                  0.9893         estimate D2E/DX2                !
 ! R2    R(1,3)                  0.9893         estimate D2E/DX2                !
 ! A1    A(2,1,3)              100.0351         estimate D2E/DX2                !
 --------------------------------------------------------------------------------
 Trust Radius=3.00D-01 FncErr=1.00D-07 GrdErr=1.00D-06 EigMax=2.50D+02 EigMin=1.00D-04
 Number of steps in this run=     20 maximum allowed number of steps=    100.
 GradGradGradGradGradGradGradGradGradGradGradGradGradGradGradGradGradGrad

                          Input orientation:                          
 ---------------------------------------------------------------------
 Center     Atomic      Atomic             Coordinates (Angstroms)
 Number     Number       Type             X           Y           Z
 ---------------------------------------------------------------------
      1          8           0       -0.031399    0.206457   -0.000000
      2          1           0        0.954491    0.288106   -0.000000
      3          1           0       -0.283592    1.163037    0.000000
 ---------------------------------------------------------------------
                    Distance matrix (angstroms):
                    1          2          3
     1  O    0.000000
     2  H    0.989265   0.000000
     3  H    0.989265   1.516032   0.000000
 Stoichiometry    H2O
 Framework group  CS[SG(H2O)]
 Deg. of freedom     3
 Full point group                 CS      NOp   2
 Largest Abelian subgroup         CS      NOp   2
 Largest concise Abelian subgroup C1      NOp   1
                         Standard orientation:                         
 ---------------------------------------------------------------------
 Center     Atomic      Atomic             Coordinates (Angstroms)
 Number     Number       Type             X           Y           Z
 ---------------------------------------------------------------------
      1          8           0       -0.000000    0.127131   -0.000000
      2          1           0        0.758016   -0.508524   -0.000000
      3          1           0       -0.758016   -0.508524    0.000000
 ---------------------------------------------------------------------
 Rotational constants (GHZ):         698.7211810         436.3604710         268.6100186
 Standard basis: 6-31G(d,p) (6D, 7F)
 There are    19 symmetry adapted cartesian basis functions of A'  symmetry.
 There are     6 symmetry adapted cartesian basis functions of A"  symmetry.
 There are    19 symmetry adapted basis functions of A'  symmetry.
 There are     6 symmetry adapted basis functions of A"  symmetry.
    25 basis functions,    42 primitive gaussians,    25 cartesian basis functions
     5 alpha electrons        5 beta electrons
       nuclear repulsion energy         8.9077639968 Hartrees.
 NAtoms=    3 NActive=    3 NUniq=    3 SFac= 1.00D+00 NAtFMM=   60 NAOKFM=F Big=F
 Integral buffers will be    131072 words long.
 Raffenetti 2 integral format.
 Two-electron integral symmetry is turned on.
 One-electron integrals computed using PRISM.
 NBasis=    25 RedAO= T EigKep=  2.29D-02  NBF=    19     6
 NBsUse=    25 1.00D-06 EigRej= -1.00D+00 NBFU=    19     6
 ExpMin= 1.61D-01 ExpMax= 5.48D+03 ExpMxC= 8.25D+02 IAcc=3 IRadAn=         5 AccDes= 0.00D+00
 Harris functional with IExCor=  402 and IRadAn=       5 diagonalized for initial guess.
 HarFok:  IExCor=  402 AccDes= 0.00D+00 IRadAn=         5 IDoV= 1 UseB2=F ITyADJ=14
 ICtDFT=  3500011 ScaDFX=  1.000000  1.000000  1.000000  1.000000
 FoFCou: FMM=F IPFlag=           0 FMFlag=      100000 FMFlg1=           0
         NFxFlg=           0 DoJE=T BraDBF=F KetDBF=T FulRan=T
         wScrn=  0.000000 ICntrl=       500 IOpCl=  0 I1Cent=   200000004 NGrid=           0
         NMat0=    1 NMatS0=      1 NMatT0=    0 NMatD0=    1 NMtDS0=    0 NMtDT0=    0
 Petite list used in FoFCou.
 Initial guess orbital symmetries:
       Occupied  (A') (A') (A') (A') (A")
       Virtual   (A') (A') (A') (A') (A") (A') (A') (A') (A') (A")
                 (A") (A') (A') (A') (A") (A") (A') (A') (A') (A')
 The electronic state of the initial guess is 1-A'.
 Keep R1 ints in memory in symmetry-blocked form, NReq=3507598.
 Requested convergence on RMS density matrix=1.00D-08 within 128 cycles.
 Requested convergence on MAX density matrix=1.00D-06.
 Requested convergence on             energy=1.00D-06.
 No special actions if energy rises.
 Integral accuracy reduced to 1.0D-05 until final iterations.
 Initial convergence to 1.0D-05 achieved.  Increase integral accuracy.
 SCF Done:  E(RB3LYP) =  -76.4185500995     A.U. after    9 cycles
            NFock=  9  Conv=0.22D-08     -V/T= 2.0088

 **********************************************************************

            Population analysis using the SCF Density.

 **********************************************************************

 Orbital symmetries:
       Occupied  (A') (A') (A') (A') (A")
       Virtual   (A') (A') (A') (A') (A") (A') (A') (A') (A') (A")
                 (A") (A') (A') (A') (A") (A") (A') (A') (A') (A')
 The electronic state is 1-A'.
 Alpha  occ. eigenvalues --  -19.14378  -0.99050  -0.50017  -0.37713  -0.29159
 Alpha virt. eigenvalues --    0.05817   0.14143   0.73735   0.79583   0.89037
 Alpha virt. eigenvalues --    0.89310   1.01288   1.18446   1.50993   1.53601
 Alpha virt. eigenvalues --    1.63068   2.20914   2.25757   2.40622   2.59340
 Alpha virt. eigenvalues --    2.66141   2.96804   3.26587   3.51844   3.66572
          Condensed to atoms (all electrons):
               1          2          3
     1  O    8.059202   0.273004   0.273004
     2  H    0.273004   0.452784  -0.028393
     3  H    0.273004  -0.028393   0.452784
 Mulliken charges:
               1
     1  O   -0.605210
     2  H    0.302605
     3  H    0.302605
 Sum of Mulliken charges =  -0.00000
 Mulliken charges with hydrogens summed into heavy atoms:
               1
     1  O   -0.000000
 Electronic spatial extent (au):  <R**2>=             19.4316
 Charge=             -0.0000 electrons
 Dipole moment (field-independent basis, Debye):
    X=             -0.0000    Y=             -2.1021    Z=              0.0000  Tot=              2.1021
 Quadrupole moment (field-independent basis, Debye-Ang):
   XX=             -4.4322   YY=             -5.8912   ZZ=             -7.1878
   XY=             -0.0000   XZ=             -0.0000   YZ=              0.0000
 Traceless Quadrupole moment (field-independent basis, Debye-Ang):
   XX=              1.4049   YY=             -0.0541   ZZ=             -1.3508
   XY=             -0.0000   XZ=             -0.0000   YZ=              0.0000
 Octapole moment (field-independent basis, Debye-Ang**2):
  XXX=             -0.0000  YYY=             -1.1897  ZZZ=              0.0000  XYY=              0.0000
  XXY=             -1.2211  XXZ=              0.0000  XZZ=             -0.0000  YZZ=             -0.2863
  YYZ=              0.0000  XYZ=              0.0000
 Hexadecapole moment (field-independent basis, Debye-Ang**3):
 XXXX=             -6.4435 YYYY=             -6.5401 ZZZZ=             -5.1860 XXXY=              0.0000
 XXXZ=              0.0000 YYYX=              0.0000 YYYZ=              0.0000 ZZZX=              0.0000
 ZZZY=              0.0000 XXYY=             -1.7669 XXZZ=             -2.1820 YYZZ=             -2.0212
 XXYZ=              0.0000 YYXZ=             -0.0000 ZZXY=              0.0000
 N-N= 8.907763996843D+00 E-N=-1.983844283506D+02  KE= 7.575419331676D+01
 Symmetry A'   KE= 7.115202258314D+01
 Symmetry A"   KE= 4.602170733625D+00
 Calling FoFJK, ICntrl=      2127 FMM=F ISym2X=1 I1Cent= 0 IOpClX= 0 NMat=1 NMatS=1 NMatT=0.
 ***** Axes restored to original set *****
 -------------------------------------------------------------------
 Center     Atomic                   Forces (Hartrees/Bohr)
 Number     Number              X              Y              Z
 -------------------------------------------------------------------
      1        8           0.018591185    0.026307509   -0.000000000
      2        1          -0.019464280   -0.005967782    0.000000000
      3        1           0.000873095   -0.020339728   -0.000000000
 -------------------------------------------------------------------
 Cartesian Forces:  Max     0.026307509 RMS     0.014401607

 GradGradGradGradGradGradGradGradGradGradGradGradGradGradGradGradGradGrad
 Berny optimization.
 FormGI is forming the generalized inverse of G from B-inverse, IUseBI=4.
 Internal  Forces:  Max     0.019890422 RMS     0.016902734
 Search for a local minimum.
 Step number   1 out of a maximum of   20
 All quantities printed in internal units (Hartrees-Bohrs-Radians)
 Mixed Optimization -- RFO/linear search
 Second derivative matrix not updated -- first step.
 The second derivative matrix:
                          R1        R2        A1
           R1           0.49627
           R2           0.00000   0.49627
           A1           0.00000   0.00000   0.16000
 ITU=  0
     Eigenvalues ---    0.16000   0.49627   0.49627
 RFO step:  Lambda=-1.99455851D-03 EMin= 1.60000000D-01
 Linear search not attempted -- first point.
 Iteration  1 RMS(Cart)=  0.02896630 RMS(Int)=  0.00078972
 Iteration  2 RMS(Cart)=  0.00089887 RMS(Int)=  0.00000028
 Iteration  3 RMS(Cart)=  0.00000019 RMS(Int)=  0.00000000
 ClnCor:  largest displacement from symmetrization is 4.44D-16 for atom     3.
 Variable       Old X    -DE/DX   Delta X   Delta X   Delta X     New X
                                 (Linear)    (Quad)   (Total)
    R1        1.86944  -0.01989   0.00000  -0.03992  -0.03992   1.82952
    R2        1.86944  -0.01989   0.00000  -0.03992  -0.03992   1.82952
    A1        1.74594   0.00812   0.00000   0.05010   0.05010   1.79604
         Item               Value     Threshold  Converged?
 Maximum Force            0.019890     0.000450     NO 
 RMS     Force            0.016903     0.000300     NO 
 Maximum Displacement     0.033281     0.001800     NO 
 RMS     Displacement     0.028845     0.001200     NO 
 Predicted change in Energy=-1.002960D-03
 GradGradGradGradGradGradGradGradGradGradGradGradGradGradGradGradGradGrad

                          Input orientation:                          
 ---------------------------------------------------------------------
 Center     Atomic      Atomic             Coordinates (Angstroms)
 Number     Number       Type             X           Y           Z
 ---------------------------------------------------------------------
      1          8           0       -0.018954    0.224069   -0.000000
      2          1           0        0.947583    0.279785   -0.000000
      3          1           0       -0.289129    1.153747    0.000000
 ---------------------------------------------------------------------
                    Distance matrix (angstroms):
                    1          2          3
     1  O    0.000000
     2  H    0.968141   0.000000
     3  H    0.968141   1.514353   0.000000
 Stoichiometry    H2O
 Framework group  C2V[C2(O),SGV(H2)]
 Deg. of freedom     2
 Full point group                 C2V     NOp   4
 Omega: Change in point group or standard orientation.

 Old FWG=CS   [SG(H2O1)]
 New FWG=C02V [C2(O1),SGV(H2)]
 Largest Abelian subgroup         C2V     NOp   4
 Largest concise Abelian subgroup C2      NOp   2
                         Standard orientation:                         
 ---------------------------------------------------------------------
 Center     Atomic      Atomic             Coordinates (Angstroms)
 Number     Number       Type             X           Y           Z
 ---------------------------------------------------------------------
      1          8           0        0.000000   -0.000000    0.120662
      2          1           0       -0.000000    0.757177   -0.482646
      3          1           0       -0.000000   -0.757177   -0.482646
 ---------------------------------------------------------------------
 Rotational constants (GHZ):         775.6572047         437.3282864         279.6544878
 Standard basis: 6-31G(d,p) (6D, 7F)
 There are    12 symmetry adapted cartesian basis functions of A1  symmetry.
 There are     2 symmetry adapted cartesian basis functions of A2  symmetry.
 There are     4 symmetry adapted cartesian basis functions of B1  symmetry.
 There are     7 symmetry adapted cartesian basis functions of B2  symmetry.
 There are    12 symmetry adapted basis functions of A1  symmetry.
 There are     2 symmetry adapted basis functions of A2  symmetry.
 There are     4 symmetry adapted basis functions of B1  symmetry.
 There are     7 symmetry adapted basis functions of B2  symmetry.
    25 basis functions,    42 primitive gaussians,    25 cartesian basis functions
     5 alpha electrons        5 beta electrons
       nuclear repulsion energy         9.0948994666 Hartrees.
 NAtoms=    3 NActive=    3 NUniq=    2 SFac= 2.25D+00 NAtFMM=   60 NAOKFM=F Big=F
 Integral buffers will be    131072 words long.
 Raffenetti 2 integral format.
 Two-electron integral symmetry is turned on.
 One-electron integrals computed using PRISM.
 NBasis=    25 RedAO= T EigKep=  2.22D-02  NBF=    12     2     4     7
 NBsUse=    25 1.00D-06 EigRej= -1.00D+00 NBFU=    12     2     4     7
 Initial guess from the checkpoint file:  "optfreq.chk"
 B after Tr=    -0.000000   -0.000000    0.000000
         Rot=    0.500000   -0.500000   -0.500000   -0.500000 Ang=-120.00 deg.
 Initial guess orbital symmetries:
       Occupied  (A1) (A1) (B2) (A1) (B1)
       Virtual   (A1) (B2) (B2) (A1) (B1) (A1) (B2) (A1) (A1) (A2)
                 (B1) (A1) (B2) (B2) (A2) (B1) (A1) (A1) (B2) (A1)
 ExpMin= 1.61D-01 ExpMax= 5.48D+03 ExpMxC= 8.25D+02 IAcc=3 IRadAn=         5 AccDes= 0.00D+00
 Harris functional with IExCor=  402 and IRadAn=       5 diagonalized for initial guess.
 HarFok:  IExCor=  402 AccDes= 0.00D+00 IRadAn=         5 IDoV= 1 UseB2=F ITyADJ=14
 ICtDFT=  3500011 ScaDFX=  1.000000  1.000000  1.000000  1.000000
 FoFCou: FMM=F IPFlag=           0 FMFlag=      100000 FMFlg1=           0
         NFxFlg=           0 DoJE=T BraDBF=F KetDBF=T FulRan=T
         wScrn=  0.000000 ICntrl=       500 IOpCl=  0 I1Cent=   200000004 NGrid=           0
         NMat0=    1 NMatS0=      1 NMatT0=    0 NMatD0=    1 NMtDS0=    0 NMtDT0=    0
 Petite list used in FoFCou.
 Keep R1 ints in memory in symmetry-blocked form, NReq=3508108.
 Requested convergence on RMS density matrix=1.00D-08 within 128 cycles.
 Requested convergence on MAX density matrix=1.00D-06.
 Requested convergence on             energy=1.00D-06.
 No special actions if energy rises.
 Integral accuracy reduced to 1.0D-05 until final iterations.
 Initial convergence to 1.0D-05 achieved.  Increase integral accuracy.
 SCF Done:  E(RB3LYP) =  -76.4197097657     A.U. after    9 cycles
            NFock=  9  Conv=0.10D-08     -V/T= 2.0079
 Calling FoFJK, ICntrl=      2127 FMM=F ISym2X=1 I1Cent= 0 IOpClX= 0 NMat=1 NMatS=1 NMatT=0.
 ***** Axes restored to original set *****
 -------------------------------------------------------------------
 Center     Atomic                   Forces (Hartrees/Bohr)
 Number     Number              X              Y              Z
 -------------------------------------------------------------------
      1        8           0.002699731    0.003820290    0.000000000
      2        1          -0.002240913   -0.001280457   -0.000000000
      3        1          -0.000458817   -0.002539833   -0.000000000
 -------------------------------------------------------------------
 Cartesian Forces:  Max     0.003820290 RMS     0.001977813

 GradGradGradGradGradGradGradGradGradGradGradGradGradGradGradGradGradGrad
 Berny optimization.
 Using GEDIIS/GDIIS optimizer.
 FormGI is forming the generalized inverse of G from B-inverse, IUseBI=4.
 Internal  Forces:  Max     0.002310889 RMS     0.002243671
 Search for a local minimum.
 Step number   2 out of a maximum of   20
 All quantities printed in internal units (Hartrees-Bohrs-Radians)
 Mixed Optimization -- RFO/linear search
 Update second derivatives using D2CorX and points    1    2
 DE= -1.16D-03 DEPred=-1.00D-03 R= 1.16D+00
 TightC=F SS=  1.41D+00  RLast= 7.55D-02 DXNew= 5.0454D-01 2.2643D-01
 Trust test= 1.16D+00 RLast= 7.55D-02 DXMaxT set to 3.00D-01
 The second derivative matrix:
                          R1        R2        A1
           R1           0.47965
           R2          -0.01661   0.47965
           A1           0.01807   0.01807   0.14881
 ITU=  1  0
 Use linear search instead of GDIIS.
     Eigenvalues ---    0.14675   0.46511   0.49627
 RFO step:  Lambda=-7.49239569D-06 EMin= 1.46747035D-01
 Quartic linear search produced a step of  0.15857.
 Iteration  1 RMS(Cart)=  0.00714382 RMS(Int)=  0.00004458
 Iteration  2 RMS(Cart)=  0.00004748 RMS(Int)=  0.00000000
 Iteration  3 RMS(Cart)=  0.00000000 RMS(Int)=  0.00000000
 ClnCor:  largest displacement from symmetrization is 1.03D-09 for atom     3.
 Variable       Old X    -DE/DX   Delta X   Delta X   Delta X     New X
                                 (Linear)    (Quad)   (Total)
    R1        1.82952  -0.00231  -0.00633   0.00108  -0.00525   1.82427
    R2        1.82952  -0.00231  -0.00633   0.00108  -0.00525   1.82427
    A1        1.79604   0.00210   0.00794   0.00631   0.01425   1.81029
         Item               Value     Threshold  Converged?
 Maximum Force            0.002311     0.000450     NO 
 RMS     Force            0.002244     0.000300     NO 
 Maximum Displacement     0.007333     0.001800     NO 
 RMS     Displacement     0.007124     0.001200     NO 
 Predicted change in Energy=-2.906155D-05
 GradGradGradGradGradGradGradGradGradGradGradGradGradGradGradGradGradGrad

                          Input orientation:                          
 ---------------------------------------------------------------------
 Center     Atomic      Atomic             Coordinates (Angstroms)
 Number     Number       Type             X           Y           Z
 ---------------------------------------------------------------------
      1          8           0       -0.016211    0.227949   -0.000000
      2          1           0        0.947922    0.276636   -0.000000
      3          1           0       -0.292211    1.153015    0.000000
 ---------------------------------------------------------------------
                    Distance matrix (angstroms):
                    1          2          3
     1  O    0.000000
     2  H    0.965362   0.000000
     3  H    0.965362   1.518542   0.000000
 Stoichiometry    H2O
 Framework group  C2V[C2(O),SGV(H2)]
 Deg. of freedom     2
 Full point group                 C2V     NOp   4
 Largest Abelian subgroup         C2V     NOp   4
 Largest concise Abelian subgroup C2      NOp   2
                         Standard orientation:                         
 ---------------------------------------------------------------------
 Center     Atomic      Atomic             Coordinates (Angstroms)
 Number     Number       Type             X           Y           Z
 ---------------------------------------------------------------------
      1          8           0        0.000000   -0.000000    0.119236
      2          1           0       -0.000000    0.759271   -0.476944
      3          1           0       -0.000000   -0.759271   -0.476944
 ---------------------------------------------------------------------
 Rotational constants (GHZ):         794.3136444         434.9190297         281.0388357
 Standard basis: 6-31G(d,p) (6D, 7F)
 There are    12 symmetry adapted cartesian basis functions of A1  symmetry.
 There are     2 symmetry adapted cartesian basis functions of A2  symmetry.
 There are     4 symmetry adapted cartesian basis functions of B1  symmetry.
 There are     7 symmetry adapted cartesian basis functions of B2  symmetry.
 There are    12 symmetry adapted basis functions of A1  symmetry.
 There are     2 symmetry adapted basis functions of A2  symmetry.
 There are     4 symmetry adapted basis functions of B1  symmetry.
 There are     7 symmetry adapted basis functions of B2  symmetry.
    25 basis functions,    42 primitive gaussians,    25 cartesian basis functions
     5 alpha electrons        5 beta electrons
       nuclear repulsion energy         9.1191106078 Hartrees.
 NAtoms=    3 NActive=    3 NUniq=    2 SFac= 2.25D+00 NAtFMM=   60 NAOKFM=F Big=F
 Integral buffers will be    131072 words long.
 Raffenetti 2 integral format.
 Two-electron integral symmetry is turned on.
 One-electron integrals computed using PRISM.
 NBasis=    25 RedAO= T EigKep=  2.22D-02  NBF=    12     2     4     7
 NBsUse=    25 1.00D-06 EigRej= -1.00D+00 NBFU=    12     2     4     7
 Initial guess from the checkpoint file:  "optfreq.chk"
 B after Tr=    -0.000000    0.000000   -0.000000
         Rot=    1.000000    0.000000    0.000000   -0.000000 Ang=   0.00 deg.
 Initial guess orbital symmetries:
       Occupied  (A1) (A1) (B2) (A1) (B1)
       Virtual   (A1) (B2) (B2) (A1) (B1) (A1) (B2) (A1) (A2) (A1)
                 (B1) (A1) (B2) (B2) (A2) (B1) (A1) (A1) (B2) (A1)
 Keep R1 ints in memory in symmetry-blocked form, NReq=3508108.
 Requested convergence on RMS density matrix=1.00D-08 within 128 cycles.
 Requested convergence on MAX density matrix=1.00D-06.
 Requested convergence on             energy=1.00D-06.
 No special actions if energy rises.
 SCF Done:  E(RB3LYP) =  -76.4197374091     A.U. after    7 cycles
            NFock=  7  Conv=0.96D-09     -V/T= 2.0078
 Calling FoFJK, ICntrl=      2127 FMM=F ISym2X=1 I1Cent= 0 IOpClX= 0 NMat=1 NMatS=1 NMatT=0.
 ***** Axes restored to original set *****
 -------------------------------------------------------------------
 Center     Atomic                   Forces (Hartrees/Bohr)
 Number     Number              X              Y              Z
 -------------------------------------------------------------------
      1        8           0.000047217    0.000066815    0.000000000
      2        1          -0.000032666   -0.000027007   -0.000000000
      3        1          -0.000014551   -0.000039808   -0.000000000
 -------------------------------------------------------------------
 Cartesian Forces:  Max     0.000066815 RMS     0.000033807

 GradGradGradGradGradGradGradGradGradGradGradGradGradGradGradGradGradGrad
 Berny optimization.
 Using GEDIIS/GDIIS optimizer.
 FormGI is forming the generalized inverse of G from B-inverse, IUseBI=4.
 Internal  Forces:  Max     0.000046199 RMS     0.000038490
 Search for a local minimum.
 Step number   3 out of a maximum of   20
 All quantities printed in internal units (Hartrees-Bohrs-Radians)
 Mixed Optimization -- En-DIIS/RFO-DIIS
 Update second derivatives using D2CorX and points    1    2    3
 DE= -2.76D-05 DEPred=-2.91D-05 R= 9.51D-01
 TightC=F SS=  1.41D+00  RLast= 1.61D-02 DXNew= 5.0454D-01 4.8213D-02
 Trust test= 9.51D-01 RLast= 1.61D-02 DXMaxT set to 3.00D-01
 The second derivative matrix:
                          R1        R2        A1
           R1           0.48297
           R2          -0.01330   0.48297
           A1           0.01330   0.01330   0.15410
 ITU=  1  1  0
 Use linear search instead of GDIIS.
     Eigenvalues ---    0.15298   0.47079   0.49627
 RFO step:  Lambda= 0.00000000D+00 EMin= 1.52983518D-01
 Quartic linear search produced a step of  0.01904.
 Iteration  1 RMS(Cart)=  0.00015883 RMS(Int)=  0.00000002
 Iteration  2 RMS(Cart)=  0.00000002 RMS(Int)=  0.00000000
 ClnCor:  largest displacement from symmetrization is 7.69D-13 for atom     3.
 Variable       Old X    -DE/DX   Delta X   Delta X   Delta X     New X
                                 (Linear)    (Quad)   (Total)
    R1        1.82427  -0.00003  -0.00010   0.00002  -0.00008   1.82419
    R2        1.82427  -0.00003  -0.00010   0.00002  -0.00008   1.82419
    A1        1.81029   0.00005   0.00027   0.00004   0.00031   1.81060
         Item               Value     Threshold  Converged?
 Maximum Force            0.000046     0.000450     YES
 RMS     Force            0.000038     0.000300     YES
 Maximum Displacement     0.000150     0.001800     YES
 RMS     Displacement     0.000159     0.001200     YES
 Predicted change in Energy=-1.001048D-08
 Optimization completed.
    -- Stationary point found.
                           ----------------------------
                           !   Optimized Parameters   !
                           ! (Angstroms and Degrees)  !
 --------------------------                            --------------------------
 ! Name  Definition              Value          Derivative Info.                !
 --------------------------------------------------------------------------------
 ! R1    R(1,2)                  0.9654         -DE/DX =    0.0                 !
 ! R2    R(1,3)                  0.9654         -DE/DX =    0.0                 !
 ! A1    A(2,1,3)              103.7219         -DE/DX =    0.0                 !
 --------------------------------------------------------------------------------
 GradGradGradGradGradGradGradGradGradGradGradGradGradGradGradGradGradGrad

                          Input orientation:                          
 ---------------------------------------------------------------------
 Center     Atomic      Atomic             Coordinates (Angstroms)
 Number     Number       Type             X           Y           Z
 ---------------------------------------------------------------------
      1          8           0       -0.016211    0.227949    0.000000
      2          1           0        0.947922    0.276636   -0.000000
      3          1           0       -0.292211    1.153015    0.000000
 ---------------------------------------------------------------------
                    Distance matrix (angstroms):
                    1          2          3
     1  O    0.000000
     2  H    0.965362   0.000000
     3  H    0.965362   1.518542   0.000000
 Stoichiometry    H2O
 Framework group  C2V[C2(O),SGV(H2)]
 Deg. of freedom     2
 Full point group                 C2V     NOp   4
 Largest Abelian subgroup         C2V     NOp   4
 Largest concise Abelian subgroup C2      NOp   2
                         Standard orientation:                         
 ---------------------------------------------------------------------
 Center     Atomic      Atomic             Coordinates (Angstroms)
 Number     Number       Type             X           Y           Z
 ---------------------------------------------------------------------
      1          8           0        0.000000   -0.000000    0.119236
      2          1           0       -0.000000    0.759271   -0.476944
      3          1           0       -0.000000   -0.759271   -0.476944
 ---------------------------------------------------------------------
 Rotational constants (GHZ):         794.3136444         434.9190297         281.0388357

 **********************************************************************

            Population analysis using the SCF Density.

 **********************************************************************

 Orbital symmetries:
       Occupied  (A1) (A1) (B2) (A1) (B1)
       Virtual   (A1) (B2) (B2) (A1) (B1) (A1) (B2) (A1) (A2) (A1)
                 (B1) (A1) (B2) (B2) (A2) (B1) (A1) (A1) (B2) (A1)
 The electronic state is 1-A1.
 Alpha  occ. eigenvalues --  -19.13802  -0.99731  -0.51494  -0.37106  -0.29197
 Alpha virt. eigenvalues --    0.06533   0.15121   0.75677   0.80552   0.89135
 Alpha virt. eigenvalues --    0.89354   1.01556   1.17543   1.52954   1.53752
 Alpha virt. eigenvalues --    1.64357   2.23865   2.26827   2.44997   2.64084
 Alpha virt. eigenvalues --    2.66684   3.02772   3.30710   3.53156   3.69279
          Condensed to atoms (all electrons):
               1          2          3
     1  O    8.041986   0.283919   0.283919
     2  H    0.283919   0.439643  -0.028474
     3  H    0.283919  -0.028474   0.439643
 Mulliken charges:
               1
     1  O   -0.609823
     2  H    0.304912
     3  H    0.304912
 Sum of Mulliken charges =   0.00000
 Mulliken charges with hydrogens summed into heavy atoms:
               1
     1  O    0.000000
 Electronic spatial extent (au):  <R**2>=             19.0929
 Charge=              0.0000 electrons
 Dipole moment (field-independent basis, Debye):
    X=             -0.0000    Y=             -0.0000    Z=             -2.0432  Tot=              2.0432
 Quadrupole moment (field-independent basis, Debye-Ang):
   XX=             -7.1379   YY=             -4.2978   ZZ=             -5.9753
   XY=              0.0000   XZ=              0.0000   YZ=              0.0000
 Traceless Quadrupole moment (field-independent basis, Debye-Ang):
   XX=             -1.3342   YY=              1.5059   ZZ=             -0.1717
   XY=              0.0000   XZ=              0.0000   YZ=              0.0000
 Octapole moment (field-independent basis, Debye-Ang**2):
  XXX=              0.0000  YYY=             -0.0000  ZZZ=             -1.1615  XYY=             -0.0000
  XXY=              0.0000  XXZ=             -0.2979  XZZ=              0.0000  YZZ=             -0.0000
  YYZ=             -1.1941  XYZ=             -0.0000
 Hexadecapole moment (field-independent basis, Debye-Ang**3):
 XXXX=             -5.1255 YYYY=             -6.1237 ZZZZ=             -6.2913 XXXY=             -0.0000
 XXXZ=             -0.0000 YYYX=             -0.0000 YYYZ=              0.0000 ZZZX=             -0.0000
 ZZZY=              0.0000 XXYY=             -2.1268 XXZZ=             -1.9559 YYZZ=             -1.7371
 XXYZ=              0.0000 YYXZ=              0.0000 ZZXY=             -0.0000
 N-N= 9.119110607820D+00 E-N=-1.988490998098D+02  KE= 7.582628159224D+01
 Symmetry A1   KE= 6.767594135042D+01
 Symmetry A2   KE= 2.180732942822D-35
 Symmetry B1   KE= 4.592919360177D+00
 Symmetry B2   KE= 3.557420881641D+00
 1\1\GINC-PHILIP-KOCHERILS-MACBOOK-PRO\FOpt\RB3LYP\6-31G(d,p)\H2O1\PKOC
 HERIL\08-Jun-2025\0\\# B3LYP/6-31G(d,p) opt freq geom=allcheck\\water 
 HF/STO-3G rough geometry optimization\\0,1\O,-0.0162113845,0.227948839
 5,0.\H,0.9479219961,0.2766358236,0.\H,-0.2922106137,1.1530153363,0.\\V
 ersion=EM64M-G16RevB.01\State=1-A1\HF=-76.4197374\RMSD=9.563e-10\RMSF=
 3.381e-05\Dipole=0.4639219,0.656479,0.\Quadrupole=0.7041856,0.2877764,
 -0.991962,-0.5878319,0.,0.\PG=C02V [C2(O1),SGV(H2)]\\@


 ART, GLORY, FREEDOM FAIL, BUT NATURE STILL IS FAIR.

                                           -- BYRON
 Job cpu time:       0 days  0 hours  0 minutes  2.0 seconds.
 Elapsed time:       0 days  0 hours  0 minutes  1.5 seconds.
 File lengths (MBytes):  RWF=      6 Int=      0 D2E=      0 Chk=      1 Scr=      1
 Normal termination of Gaussian 16 at Sun Jun  8 14:55:26 2025.
 Link1:  Proceeding to internal job step number  2.
 ----------------------------------------------------------------------
 #N Geom=AllCheck Guess=TCheck SCRF=Check GenChk RB3LYP/6-31G(d,p) Freq
 ----------------------------------------------------------------------
 1/10=4,29=7,30=1,38=1,40=1/1,3;
 2/12=2,40=1/2;
 3/5=1,6=6,7=101,11=2,14=-4,25=1,30=1,70=2,71=2,74=-5,116=1,140=1/1,2,3;
 4/5=101/1;
 5/5=2,38=6,98=1/2;
 8/6=4,10=90,11=11/1;
 11/6=1,8=1,9=11,15=111,16=1/1,2,10;
 10/6=1/2;
 6/7=2,8=2,9=2,10=2,28=1/1;
 7/8=1,10=1,25=1/1,2,3,16;
 1/10=4,30=1/3;
 99//99;
 Structure from the checkpoint file:  "optfreq.chk"
 -------------------------------------------
 water HF/STO-3G rough geometry optimization
 -------------------------------------------
 Charge =  0 Multiplicity = 1
 Redundant internal coordinates found in file.  (old form).
 O,0,-0.0162113845,0.2279488395,0.
 H,0,0.9479219961,0.2766358236,0.
 H,0,-0.2922106137,1.1530153363,0.
 Recover connectivity data from disk.

 GradGradGradGradGradGradGradGradGradGradGradGradGradGradGradGradGradGrad
 Berny optimization.
 Initialization pass.
                           ----------------------------
                           !    Initial Parameters    !
                           ! (Angstroms and Degrees)  !
 --------------------------                            --------------------------
 ! Name  Definition              Value          Derivative Info.                !
 --------------------------------------------------------------------------------
 ! R1    R(1,2)                  0.9654         calculate D2E/DX2 analytically  !
 ! R2    R(1,3)                  0.9654         calculate D2E/DX2 analytically  !
 ! A1    A(2,1,3)              103.7219         calculate D2E/DX2 analytically  !
 --------------------------------------------------------------------------------
 Trust Radius=3.00D-01 FncErr=1.00D-07 GrdErr=1.00D-07 EigMax=2.50D+02 EigMin=1.00D-04
 Number of steps in this run=      2 maximum allowed number of steps=      2.
 GradGradGradGradGradGradGradGradGradGradGradGradGradGradGradGradGradGrad

                          Input orientation:                          
 ---------------------------------------------------------------------
 Center     Atomic      Atomic             Coordinates (Angstroms)
 Number     Number       Type             X           Y           Z
 ---------------------------------------------------------------------
      1          8           0       -0.016211    0.227949    0.000000
      2          1           0        0.947922    0.276636   -0.000000
      3          1           0       -0.292211    1.153015    0.000000
 ---------------------------------------------------------------------
                    Distance matrix (angstroms):
                    1          2          3
     1  O    0.000000
     2  H    0.965362   0.000000
     3  H    0.965362   1.518542   0.000000
 Stoichiometry    H2O
 Framework group  C2V[C2(O),SGV(H2)]
 Deg. of freedom     2
 Full point group                 C2V     NOp   4
 Largest Abelian subgroup         C2V     NOp   4
 Largest concise Abelian subgroup C2      NOp   2
[...]
 Alpha virt. eigenvalues --    2.04964   2.09887   2.27635   2.37578   2.56871
 Alpha virt. eigenvalues --    2.59787   2.60308   2.76777   3.62607   3.91863
 Alpha virt. eigenvalues --    5.09519   5.19415   5.37236   5.39522   5.46065
 Alpha virt. eigenvalues --    6.01464   6.20207   6.29598   6.36078   6.40896
 Alpha virt. eigenvalues --    6.89536   6.97858  43.22036
          Condensed to atoms (all electrons):
               1          2          3
     1  O    8.029437   0.300878   0.300878
     2  H    0.300878   0.409693  -0.026168
     3  H    0.300878  -0.026168   0.409693
 Mulliken charges:
               1
     1  O   -0.631193
     2  H    0.315597
     3  H    0.315597
 Sum of Mulliken charges =   0.00000
 Mulliken charges with hydrogens summed into heavy atoms:
               1
     1  O    0.000000
 Electronic spatial extent (au):  <R**2>=             19.7123
 Charge=              0.0000 electrons
 Dipole moment (field-independent basis, Debye):
    X=             -0.0000    Y=              0.0000    Z=             -2.0671  Tot=              2.0671
 Quadrupole moment (field-independent basis, Debye-Ang):
   XX=             -7.5852   YY=             -4.3568   ZZ=             -6.3291
   XY=              0.0000   XZ=              0.0000   YZ=             -0.0000
 Traceless Quadrupole moment (field-independent basis, Debye-Ang):
   XX=             -1.4948   YY=              1.7336   ZZ=             -0.2387
   XY=              0.0000   XZ=              0.0000   YZ=             -0.0000
 Octapole moment (field-independent basis, Debye-Ang**2):
  XXX=              0.0000  YYY=              0.0000  ZZZ=             -1.3462  XYY=             -0.0000
  XXY=             -0.0000  XXZ=             -0.3668  XZZ=              0.0000  YZZ=              0.0000
  YYZ=             -1.3276  XYZ=             -0.0000
 Hexadecapole moment (field-independent basis, Debye-Ang**3):
 XXXX=             -6.5649 YYYY=             -6.3586 ZZZZ=             -7.2869 XXXY=             -0.0000
 XXXZ=             -0.0000 YYYX=             -0.0000 YYYZ=             -0.0000 ZZZX=             -0.0000
 ZZZY=              0.0000 XXYY=             -2.4407 XXZZ=             -2.3612 YYZZ=             -1.9493
 XXYZ=              0.0000 YYXZ=              0.0000 ZZXY=              0.0000
 N-N= 9.141097197292D+00 E-N=-1.991818832824D+02  KE= 7.616601024615D+01
 Symmetry A1   KE= 6.795055022525D+01
 Symmetry A2   KE= 4.404468794841D-35
 Symmetry B1   KE= 4.561979236775D+00
 Symmetry B2   KE= 3.653480784129D+00
 1\1\GINC-PHILIP-KOCHERILS-MACBOOK-PRO\SP\RB3LYP\def2TZVP\H2O1\PKOCHERI
 L\08-Jun-2025\0\\# B3LYP/def2TZVP em=GD3BJ geom=allcheck\\water HF/STO
 -3G rough geometry optimization\\0,1\O,0,-0.0122733833,0.2335213611,0.
 \H,0,0.9496466087,0.2712393525,0.\H,0,-0.2978732275,1.1528392859,0.\\V
 ersion=EM64M-G16RevB.01\State=1-A1\HF=-76.4635682\RMSD=7.007e-09\Dipol
 e=0.4693555,0.6641678,0.\Quadrupole=0.8004672,0.3109015,-1.1113687,-0.
 6911048,0.,0.\PG=C02V [C2(O1),SGV(H2)]\\@


 "ANNA, YOU MUSN'T SPEAK OF OXIDIZED MURIATIC ACID
 ANYMORE, FROM NOW ON YOU MUST SAY CHLORINE."
   -- JENS JACOB BERZELIUS, IN 1820, TO HIS COOK, WHO HAD
 COMPLAINED OF THE SMELL OF THE FLASK SHE WAS CLEANING.
 Job cpu time:       0 days  0 hours  0 minutes  0.7 seconds.
 Elapsed time:       0 days  0 hours  0 minutes  0.5 seconds.
 File lengths (MBytes):  RWF=      6 Int=      0 D2E=      0 Chk=      1 Scr=      1
 Normal termination of Gaussian 16 at Sun Jun  8 14:55:31 2025.
 Initial command:
 /Applications/GaussView6/gv/l1.exe "/Applications/Gaussview6/gv/Scratch/Gau-3710.inp" -scrdir="/Applications/Gaussview6/gv/Scratch/"
 Entering Link 1 = /Applications/GaussView6/gv/l1.exe PID=      3726.
  
 Copyright (c) 1988-2017, Gaussian, Inc.  All Rights Reserved.
  
 This is part of the Gaussian(R) 16 program.  It is based on
 the Gaussian(R) 09 system (copyright 2009, Gaussian, Inc.),
 the Gaussian(R) 03 system (copyright 2003, Gaussian, Inc.),
 the Gaussian(R) 98 system (copyright 1998, Gaussian, Inc.),
 the Gaussian(R) 94 system (copyright 1995, Gaussian, Inc.),
 the Gaussian 92(TM) system (copyright 1992, Gaussian, Inc.),
 the Gaussian 90(TM) system (copyright 1990, Gaussian, Inc.),
 the Gaussian 88(TM) system (copyright 1988, Gaussian, Inc.),
 the Gaussian 86(TM) system (copyright 1986, Carnegie Mellon
 University), and the Gaussian 82(TM) system (copyright 1983,
 Carnegie Mellon University). Gaussian is a federally registered
 trademark of Gaussian, Inc.
  
 This software contains proprietary and confidential information,
 including trade secrets, belonging to Gaussian, Inc.
  
 This software is provided under written license and may be
 used, copied, transmitted, or stored only in accord with that
 written license.
  
 The following legend is applicable only to US Government
 contracts under FAR:
  
                    RESTRICTED RIGHTS LEGEND
  
 Use, reproduction and disclosure by the US Government is
 subject to restrictions as set forth in subparagraphs (a)
 and (c) of the Commercial Computer Software - Restricted
 Rights clause in FAR 52.227-19.
  
 Gaussian, Inc.
 340 Quinnipiac St., Bldg. 40, Wallingford CT 06492
  
  
 ---------------------------------------------------------------
 Warning -- This program may not be used in any manner that
 competes with the business of Gaussian, Inc. or will provide
 assistance to any competitor of Gaussian, Inc.  The licensee
 of this program is prohibited from giving any competitor of
 Gaussian, Inc. access to this program.  By using this program,
 the user acknowledges that Gaussian, Inc. is engaged in the
 business of creating and licensing software in the field of
 computational chemistry and represents and warrants to the
 licensee that it is not a competitor of Gaussian, Inc. and that
 it will not use this program in any manner prohibited above.
 ---------------------------------------------------------------
  

 Cite this work as:
 Gaussian 16, Revision B.01,
 M. J. Frisch, G. W. Trucks, H. B. Schlegel, G. E. Scuseria, 
 M. A. Robb, J. R. Cheeseman, G. Scalmani, V. Barone, 
 G. A. Petersson, H. Nakatsuji, X. Li, M. Caricato, A. V. Marenich, 
 J. Bloino, B. G. Janesko, R. Gomperts, B. Mennucci, H. P. Hratchian, 
 J. V. Ortiz, A. F. Izmaylov, J. L. Sonnenberg, D. Williams-Young, 
 F. Ding, F. Lipparini, F. Egidi, J. Goings, B. Peng, A. Petrone, 
 T. Henderson, D. Ranasinghe, V. G. Zakrzewski, J. Gao, N. Rega, 
 G. Zheng, W. Liang, M. Hada, M. Ehara, K. Toyota, R. Fukuda, 
 J. Hasegawa, M. Ishida, T. Nakajima, Y. Honda, O. Kitao, H. Nakai, 
 T. Vreven, K. Throssell, J. A. Montgomery, Jr., J. E. Peralta, 
 F. Ogliaro, M. J. Bearpark, J. J. Heyd, E. N. Brothers, K. N. Kudin, 
 V. N. Staroverov, T. A. Keith, R. Kobayashi, J. Normand, 
 K. Raghavachari, A. P. Rendell, J. C. Burant, S. S. Iyengar, 
 J. Tomasi, M. Cossi, J. M. Millam, M. Klene, C. Adamo, R. Cammi, 
 J. W. Ochterski, R. L. Martin, K. Morokuma, O. Farkas, 
 J. B. Foresman, and D. J. Fox, Gaussian, Inc., Wallingford CT, 2016.
 
 ******************************************
 Gaussian 16:  EM64M-G16RevB.01 20-Dec-2017
                 8-Jun-2025 
 ******************************************
 %nprocshared=4
 Will use up to    4 processors via shared memory.
 %mem=4GB
 %oldchk=tzvp_opt.chk
 %chk=SP_water.chk
 Copying data from "tzvp_opt.chk" to current chk file "SP_water.chk"
 IOpt=  2 FromEx=T IUOpen= 4 IOptOp= 5 NList=   0 IFRang= 0 IUIn= 4 IUOut= 2.
 ------------------------------------------------------------
 # B3LYP/def2TZVP em=GD3BJ scrf=(solvent=water) geom=allcheck
 ------------------------------------------------------------
 1/29=7,38=1,172=1/1;
 2/12=2,40=1/2;
 3/5=44,7=101,11=2,14=-4,25=1,30=1,70=2201,72=1,74=-5,124=41/1,2,3;
 4//1;
 5/5=2,38=5,53=1/2;
 6/7=2,8=2,9=2,10=2,28=1/1;
 99/5=1,9=1/99;
 Structure from the checkpoint file:  "SP_water.chk"
 -------------------------------------------
 water HF/STO-3G rough geometry optimization
 -------------------------------------------
 Charge =  0 Multiplicity = 1
 Redundant internal coordinates found in file.  (old form).
 O,0,-0.0122733833,0.2335213611,0.
 H,0,0.9496466087,0.2712393525,0.
 H,0,-0.2978732275,1.1528392859,0.
 Recover connectivity data from disk.
                           ----------------------------
                           !    Current Parameters    !
                           ! (Angstroms and Degrees)  !
 --------------------------                            --------------------------
 ! Name  Definition              Value                                          !
 --------------------------------------------------------------------------------
 ! R1    R(1,2)                  0.9627                                         !
 ! R2    R(1,3)                  0.9627                                         !
 ! A1    A(2,1,3)              105.0127                                         !
 --------------------------------------------------------------------------------
                          Input orientation:                          
 ---------------------------------------------------------------------
 Center     Atomic      Atomic             Coordinates (Angstroms)
 Number     Number       Type             X           Y           Z
 ---------------------------------------------------------------------
      1          8           0       -0.012273    0.233521    0.000000
      2          1           0        0.949647    0.271239   -0.000000
      3          1           0       -0.297873    1.152839    0.000000
 ---------------------------------------------------------------------
                    Distance matrix (angstroms):
                    1          2          3
     1  O    0.000000
     2  H    0.962659   0.000000
     3  H    0.962659   1.527588   0.000000
 Stoichiometry    H2O
 Framework group  C2V[C2(O),SGV(H2)]
 Deg. of freedom     2
 Full point group                 C2V     NOp   4
 Largest Abelian subgroup         C2V     NOp   4
 Largest concise Abelian subgroup C2      NOp   2
                         Standard orientation:                         
 ---------------------------------------------------------------------
 Center     Atomic      Atomic             Coordinates (Angstroms)
 Number     Number       Type             X           Y           Z
 ---------------------------------------------------------------------
      1          8           0        0.000000    0.000000    0.117189
      2          1           0       -0.000000    0.763794   -0.468756
      3          1           0       -0.000000   -0.763794   -0.468756
 ---------------------------------------------------------------------
 Rotational constants (GHZ):         822.3062594         429.7835076         282.2590503
 Standard basis: def2TZVP (5D, 7F)
 There are    22 symmetry adapted cartesian basis functions of A1  symmetry.
 There are     4 symmetry adapted cartesian basis functions of A2  symmetry.
 There are     9 symmetry adapted cartesian basis functions of B1  symmetry.
 There are    13 symmetry adapted cartesian basis functions of B2  symmetry.
 There are    19 symmetry adapted basis functions of A1  symmetry.
 There are     4 symmetry adapted basis functions of A2  symmetry.
 There are     8 symmetry adapted basis functions of B1  symmetry.
 There are    12 symmetry adapted basis functions of B2  symmetry.
    43 basis functions,    67 primitive gaussians,    48 cartesian basis functions
     5 alpha electrons        5 beta electrons
       nuclear repulsion energy         9.1416710393 Hartrees.
 NAtoms=    3 NActive=    3 NUniq=    2 SFac= 2.25D+00 NAtFMM=   60 NAOKFM=F Big=F
 Integral buffers will be    131072 words long.
 Raffenetti 2 integral format.
 Two-electron integral symmetry is turned on.
 Nuclear repulsion after empirical dispersion term =        9.1410971973 Hartrees.
 ------------------------------------------------------------------------------
 Polarizable Continuum Model (PCM)
 =================================
 Model                : PCM.
 Atomic radii         : UFF (Universal Force Field).
 Polarization charges : Total charges.
 Charge compensation  : None.
 Solution method      : On-the-fly selection.
 Cavity type          : Scaled VdW (van der Waals Surface) (Alpha=1.100).
 Cavity algorithm     : GePol (No added spheres)
                        Default sphere list used, NSphG=    3.
                        Lebedev-Laikov grids with approx.  5.0 points / Ang**2.
                        Smoothing algorithm: York/Karplus (Gamma=1.0000).
                        Polarization charges: spherical gaussians, with
                                              point-specific exponents (IZeta= 3).
                        Self-potential: point-specific (ISelfS= 7).
                        Self-field    : sphere-specific E.n sum rule (ISelfD= 2).
 Solvent              : Water, Eps=  78.355300 Eps(inf)=   1.777849
 ------------------------------------------------------------------------------
 Spheres list:
 ISph  on   Nord     Re0    Alpha      Xe            Ye            Ze
    1   O      1    1.7500  1.100      0.000000      0.000000      0.117189
    2   H      2    1.4430  1.100     -0.000000      0.763794     -0.468756
    3   H      3    1.4430  1.100     -0.000000     -0.763794     -0.468756
 ------------------------------------------------------------------------------
 One-electron integrals computed using PRISM.
   4 Symmetry operations used in ECPInt.
 ECPInt:  NShTT=     190 NPrTT=     556 LenC2=     191 LenP2D=     543.
 LDataN:  DoStor=T MaxTD1= 6 Len=  172
 NBasis=    43 RedAO= T EigKep=  8.50D-03  NBF=    19     4     8    12
 NBsUse=    43 1.00D-06 EigRej= -1.00D+00 NBFU=    19     4     8    12
 ExpMin= 1.03D-01 ExpMax= 2.70D+04 ExpMxC= 9.22D+02 IAcc=3 IRadAn=         5 AccDes= 0.00D+00
 Harris functional with IExCor=  402 and IRadAn=       5 diagonalized for initial guess.
 HarFok:  IExCor=  402 AccDes= 0.00D+00 IRadAn=         5 IDoV= 1 UseB2=F ITyADJ=14
 ICtDFT=  3500011 ScaDFX=  1.000000  1.000000  1.000000  1.000000
 FoFCou: FMM=F IPFlag=           0 FMFlag=      100000 FMFlg1=           0
         NFxFlg=           0 DoJE=T BraDBF=F KetDBF=T FulRan=T
         wScrn=  0.000000 ICntrl=       500 IOpCl=  0 I1Cent=   200000004 NGrid=           0
         NMat0=    1 NMatS0=      1 NMatT0=    0 NMatD0=    1 NMtDS0=    0 NMtDT0=    0
 Petite list used in FoFCou.
 Initial guess orbital symmetries:
       Occupied  (A1) (A1) (B2) (A1) (B1)
       Virtual   (A1) (B2) (B2) (A1) (B1) (A1) (B2) (A1) (A1) (A2)
                 (B1) (B2) (A1) (B2) (A1) (B1) (A2) (B2) (A1) (B1)
                 (B2) (A1) (A1) (A1) (B2) (B1) (A1) (B1) (A2) (B2)
                 (B2) (A1) (B1) (A2) (A1) (A1) (B2) (A1)
 The electronic state of the initial guess is 1-A1.
 Keep R1 ints in memory in symmetry-blocked form, NReq=3942113.
 Requested convergence on RMS density matrix=1.00D-08 within 128 cycles.
 Requested convergence on MAX density matrix=1.00D-06.
 Requested convergence on             energy=1.00D-06.
 No special actions if energy rises.
 Inv3:  Mode=1 IEnd=      460992.
 Iteration    1 A*A^-1 deviation from unit magnitude is 2.22D-15 for    375.
 Iteration    1 A*A^-1 deviation from orthogonality  is 2.01D-15 for    285      9.
 Iteration    1 A^-1*A deviation from unit magnitude is 2.11D-15 for    375.
 Iteration    1 A^-1*A deviation from orthogonality  is 8.33D-16 for    304    268.
 Error on total polarization charges =  0.00416
 SCF Done:  E(RB3LYP) =  -76.4710083374     A.U. after    8 cycles
            NFock=  8  Conv=0.12D-08     -V/T= 2.0042

 **********************************************************************

            Population analysis using the SCF Density.

 **********************************************************************

 Orbital symmetries:
       Occupied  (A1) (A1) (B2) (A1) (B1)
       Virtual   (A1) (B2) (B2) (A1) (B1) (A1) (B2) (A1) (A1) (A2)
                 (B1) (B2) (A1) (B2) (A1) (B1) (A2) (B2) (A1) (B2)
                 (B1) (A1) (A1) (A1) (B2) (B1) (A1) (B1) (A2) (B2)
                 (B2) (A1) (B1) (A2) (A1) (A1) (B2) (A1)
 The electronic state is 1-A1.
 Alpha  occ. eigenvalues --  -19.12914  -1.01505  -0.53465  -0.39679  -0.32148
 Alpha virt. eigenvalues --    0.02640   0.10572   0.35222   0.39804   0.41439
 Alpha virt. eigenvalues --    0.43167   0.56949   0.59695   1.16339   1.18630
 Alpha virt. eigenvalues --    1.29081   1.52090   1.62862   1.75235   1.97781
 Alpha virt. eigenvalues --    2.04893   2.09893   2.28021   2.37227   2.57015
 Alpha virt. eigenvalues --    2.59979   2.60268   2.76244   3.62927   3.91874
 Alpha virt. eigenvalues --    5.09051   5.19009   5.36851   5.39255   5.45766
 Alpha virt. eigenvalues --    6.01449   6.20045   6.29197   6.35678   6.40576
 Alpha virt. eigenvalues --    6.89251   6.97557  43.21845
          Condensed to atoms (all electrons):
               1          2          3
     1  O    8.077686   0.308051   0.308051
     2  H    0.308051   0.368085  -0.023030
     3  H    0.308051  -0.023030   0.368085
 Mulliken charges:
               1
     1  O   -0.693789
     2  H    0.346894
     3  H    0.346894
 Sum of Mulliken charges =  -0.00000
 Mulliken charges with hydrogens summed into heavy atoms:
               1
     1  O   -0.000000
 Electronic spatial extent (au):  <R**2>=             19.6480
 Charge=             -0.0000 electrons
 Dipole moment (field-independent basis, Debye):
    X=             -0.0000    Y=              0.0000    Z=             -2.3119  Tot=              2.3119
 Quadrupole moment (field-independent basis, Debye-Ang):
   XX=             -7.6244   YY=             -4.2472   ZZ=             -6.3130
   XY=              0.0000   XZ=              0.0000   YZ=             -0.0000
 Traceless Quadrupole moment (field-independent basis, Debye-Ang):
   XX=             -1.5629   YY=              1.8143   ZZ=             -0.2515
   XY=              0.0000   XZ=              0.0000   YZ=             -0.0000
 Octapole moment (field-independent basis, Debye-Ang**2):
  XXX=              0.0000  YYY=              0.0000  ZZZ=             -1.6578  XYY=             -0.0000
  XXY=             -0.0000  XXZ=             -0.4558  XZZ=             -0.0000  YZZ=              0.0000
  YYZ=             -1.5069  XYZ=             -0.0000
 Hexadecapole moment (field-independent basis, Debye-Ang**3):
 XXXX=             -6.6460 YYYY=             -6.0457 ZZZZ=             -7.2418 XXXY=             -0.0000
 XXXZ=             -0.0000 YYYX=              0.0000 YYYZ=             -0.0000 ZZZX=             -0.0000
 ZZZY=             -0.0000 XXYY=             -2.4174 XXZZ=             -2.3701 YYZZ=             -1.8635
 XXYZ=              0.0000 YYXZ=              0.0000 ZZXY=              0.0000
 N-N= 9.141097197292D+00 E-N=-1.992024976873D+02  KE= 7.615320103462D+01
 Symmetry A1   KE= 6.793628344346D+01
 Symmetry A2   KE= 2.064152296471D-35
 Symmetry B1   KE= 4.533332777593D+00
 Symmetry B2   KE= 3.683584813568D+00
 1\1\GINC-PHILIP-KOCHERILS-MACBOOK-PRO\SP\RB3LYP\def2TZVP\H2O1\PKOCHERI
 L\08-Jun-2025\0\\# B3LYP/def2TZVP em=GD3BJ scrf=(solvent=water) geom=a
 llcheck\\water HF/STO-3G rough geometry optimization\\0,1\O,0,-0.01227
 33833,0.2335213611,0.\H,0,0.9496466087,0.2712393525,0.\H,0,-0.29787322
 75,1.1528392859,0.\\Version=EM64M-G16RevB.01\State=1-A1\HF=-76.4710083
 \RMSD=1.245e-09\Dipole=0.5249259,0.7428035,0.\Quadrupole=0.8373679,0.3
 245876,-1.1619555,-0.723876,0.,0.\PG=C02V [C2(O1),SGV(H2)]\\@


 ABOVE ALL I AM AN OPTIMIST FOR NUMBER THEORY,
 AND I HOLD THE HOPE THAT WE MAY NOT BE FAR FROM
 A TIME WHEN IRREFUTABLE ARITHMETIC WILL CELEBRATE
 ITS TRIUMPHS IN PHYSICS AND CHEMISTRY.
   -- HERMANN MINKOWSKI, 1905
 Job cpu time:       0 days  0 hours  0 minutes  1.1 seconds.
 Elapsed time:       0 days  0 hours  0 minutes  1.0 seconds.
 File lengths (MBytes):  RWF=     10 Int=      0 D2E=      0 Chk=      1 Scr=      1
 Normal termination of Gaussian 16 at Sun Jun  8 14:55:32 2025.
