 Entering Gaussian System, Link 0=g16
 Input=Benzonitrile_linked.gjf
 Output=Benzonitrile_linked.log
 Initial command:
 /Applications/GaussView6/gv/l1.exe "/Applications/Gaussview6/gv/Scratch/Gau-5203.inp" -scrdir="/Applications/Gaussview6/gv/Scratch/"
 Entering Link 1 = /Applications/GaussView6/gv/l1.exe PID=      5204.
  
 Copyright (c) 1988-2017, Gaussian, Inc.  All Rights Reserved.
  
 This is part of the Gaussian(R) 16 program.  It is based on
 the Gaussian(R) 09 system (copyright 2009, Gaussian, Inc.),
 the Gaussian(R) 03 system (copyright 2003, Gaussian, Inc.),
 the Gaussian(R) 98 system (copyright 1998, Gaussian, Inc.),
 the Gaussian(R) 94 system (copyright 1995, Gaussian, Inc.),
 the Gaussian 92(TM) system (copyright 1992, Gaussian, Inc.),
 the Gaussian 90(TM) system (copyright 1990, Gaussian, Inc.),
 the Gaussian 88(TM) system (copyright 1988, Gaussian, Inc.),
 the Gaussian 86(TM) system (copyright 1986, Carnegie Mellon
 University), and the Gaussian 82(TM) system (copyright 1983,
 Carnegie Mellon University). Gaussian is a federally registered
 trademark of Gaussian, Inc.
  
 This software contains proprietary and confidential information,
 including trade secrets, belonging to Gaussian, Inc.
  
 This software is provided under written license and may be
 used, copied, transmitted, or stored only in accord with that
 written license.
  
 The following legend is applicable only to US Government
 contracts under FAR:
  
                    RESTRICTED RIGHTS LEGEND
  
 Use, reproduction and disclosure by the US Government is
 subject to restrictions as set forth in subparagraphs (a)
 and (c) of the Commercial Computer Software - Restricted
 Rights clause in FAR 52.227-19.
  
 Gaussian, Inc.
 340 Quinnipiac St., Bldg. 40, Wallingford CT 06492
  
  
 ---------------------------------------------------------------
 Warning -- This program may not be used in any manner that
 competes with the business of Gaussian, Inc. or will provide
 assistance to any competitor of Gaussian, Inc.  The licensee
 of this program is prohibited from giving any competitor of
 Gaussian, Inc. access to this program.  By using this program,
 the user acknowledges that Gaussian, Inc. is engaged in the
 business of creating and licensing software in the field of
 computational chemistry and represents and warrants to the
 licensee that it is not a competitor of Gaussian, Inc. and that
 it will not use this program in any manner prohibited above.
 ---------------------------------------------------------------
  

 Cite this work as:
 Gaussian 16, Revision B.01,
 M. J. Frisch, G. W. Trucks, H. B. Schlegel, G. E. Scuseria, 
 M. A. Robb, J. R. Cheeseman, G. Scalmani, V. Barone, 
 G. A. Petersson, H. Nakatsuji, X. Li, M. Caricato, A. V. Marenich, 
 J. Bloino, B. G. Janesko, R. Gomperts, B. Mennucci, H. P. Hratchian, 
 J. V. Ortiz, A. F. Izmaylov, J. L. Sonnenberg, D. Williams-Young, 
 F. Ding, F. Lipparini, F. Egidi, J. Goings, B. Peng, A. Petrone, 
 T. Henderson, D. Ranasinghe, V. G. Zakrzewski, J. Gao, N. Rega, 
 G. Zheng, W. Liang, M. Hada, M. Ehara, K. Toyota, R. Fukuda, 
 J. Hasegawa, M. Ishida, T. Nakajima, Y. Honda, O. Kitao, H. Nakai, 
 T. Vreven, K. Throssell, J. A. Montgomery, Jr., J. E. Peralta, 
 F. Ogliaro, M. J. Bearpark, J. J. Heyd, E. N. Brothers, K. N. Kudin, 
 V. N. Staroverov, T. A. Keith, R. Kobayashi, J. Normand, 
 K. Raghavachari, A. P. Rendell, J. C. Burant, S. S. Iyengar, 
 J. Tomasi, M. Cossi, J. M. Millam, M. Klene, C. Adamo, R. Cammi, 
 J. W. Ochterski, R. L. Martin, K. Morokuma, O. Farkas, 
 J. B. Foresman, and D. J. Fox, Gaussian, Inc., Wallingford CT, 2016.
 
 ******************************************
 Gaussian 16:  EM64M-G16RevB.01 20-Dec-2017
                 8-Jun-2025 
 ******************************************
 %nprocshared=8
 Will use up to    8 processors via shared memory.
 %mem=8GB
 %chk=Benzonitrile_roughopt.chk
 ---------------------------------
 # HF/STO-3G opt geom=connectivity
 ---------------------------------
 1/18=20,19=15,38=1,57=2/1,3;
 2/9=110,12=2,17=6,18=5,40=1/2;
 3/6=3,11=9,25=1,30=1,71=1/1,2,3;
 4//1;
 5/5=2,38=5/2;
 6/7=2,8=2,9=2,10=2,28=1/1;
 7//1,2,3,16;
 1/18=20,19=15/3(2);
 2/9=110/2;
 99//99;
 2/9=110/2;
 3/6=3,11=9,25=1,30=1,71=1/1,2,3;
 4/5=5,16=3,69=1/1;
 5/5=2,38=5/2;
 7//1,2,3,16;
 1/18=20,19=15/3(-5);
 2/9=110/2;
 6/7=2,8=2,9=2,10=2,19=2,28=1/1;
 99/9=1/99;
 --------------------------------------------------
 Benzonitrile HF/STO-3G rough geometry optimization
 --------------------------------------------------
 Symbolic Z-matrix:
 Charge =  0 Multiplicity = 1
 C                     0.2217    1.2121   -0.0231 
 C                     1.6169    1.2034    0.0196 
 C                     2.3063   -0.0091    0.0475 
 C                     1.6049   -1.2144    0.0187 
 C                     0.2097   -1.2091   -0.026 
 C                    -0.4859    0.005    -0.0366 
 C                    -1.9185    0.0112   -0.0407 
 N                    -3.0799    0.0151   -0.031 
 H                    -0.3074    2.1631   -0.0386 
 H                     2.1667    2.1415    0.0372 
 H                     3.3929   -0.0146    0.0932 
 H                     2.1449   -2.1582    0.0368 
 H                    -0.329    -2.1544   -0.0451 
 

 GradGradGradGradGradGradGradGradGradGradGradGradGradGradGradGradGradGrad
 Berny optimization.
 Initialization pass.
                           ----------------------------
                           !    Initial Parameters    !
                           ! (Angstroms and Degrees)  !
 --------------------------                            --------------------------
 ! Name  Definition              Value          Derivative Info.                !
 --------------------------------------------------------------------------------
 ! R1    R(1,2)                  1.3959         estimate D2E/DX2                !
 ! R2    R(1,6)                  1.3993         estimate D2E/DX2                !
 ! R3    R(1,9)                  1.0884         estimate D2E/DX2                !
 ! R4    R(2,3)                  1.3951         estimate D2E/DX2                !
 ! R5    R(2,10)                 1.0875         estimate D2E/DX2                !
 ! R6    R(3,4)                  1.3948         estimate D2E/DX2                !
 ! R7    R(3,11)                 1.0876         estimate D2E/DX2                !
 ! R8    R(4,5)                  1.3959         estimate D2E/DX2                !
 ! R9    R(4,12)                 1.0875         estimate D2E/DX2                !
 ! R10   R(5,6)                  1.3993         estimate D2E/DX2                !
 ! R11   R(5,13)                 1.0882         estimate D2E/DX2                !
 ! R12   R(6,7)                  1.4326         estimate D2E/DX2                !
 ! R13   R(7,8)                  1.1614         estimate D2E/DX2                !
 ! A1    A(2,1,6)              120.024          estimate D2E/DX2                !
 ! A2    A(2,1,9)              119.4574         estimate D2E/DX2                !
 ! A3    A(6,1,9)              120.5172         estimate D2E/DX2                !
 ! A4    A(1,2,3)              119.9972         estimate D2E/DX2                !
 ! A5    A(1,2,10)             120.0293         estimate D2E/DX2                !
 ! A6    A(3,2,10)             119.9724         estimate D2E/DX2                !
 ! A7    A(2,3,4)              120.1409         estimate D2E/DX2                !
 ! A8    A(2,3,11)             119.9314         estimate D2E/DX2                !
 ! A9    A(4,3,11)             119.9276         estimate D2E/DX2                !
 ! A10   A(3,4,5)              119.9985         estimate D2E/DX2                !
 ! A11   A(3,4,12)             119.993          estimate D2E/DX2                !
 ! A12   A(5,4,12)             120.0076         estimate D2E/DX2                !
 ! A13   A(4,5,6)              120.0257         estimate D2E/DX2                !
 ! A14   A(4,5,13)             119.4754         estimate D2E/DX2                !
 ! A15   A(6,5,13)             120.4975         estimate D2E/DX2                !
 ! A16   A(1,6,5)              119.8041         estimate D2E/DX2                !
 ! A17   A(1,6,7)              120.1309         estimate D2E/DX2                !
 ! A18   A(5,6,7)              120.0582         estimate D2E/DX2                !
 ! A19   L(6,7,8,13,-1)        179.9444         estimate D2E/DX2                !
 ! A20   L(6,7,8,13,-2)        179.2008         estimate D2E/DX2                !
 ! D1    D(6,1,2,3)              0.0632         estimate D2E/DX2                !
 ! D2    D(6,1,2,10)          -179.5674         estimate D2E/DX2                !
 ! D3    D(9,1,2,3)            179.6357         estimate D2E/DX2                !
 ! D4    D(9,1,2,10)             0.0052         estimate D2E/DX2                !
 ! D5    D(2,1,6,5)             -0.8883         estimate D2E/DX2                !
 ! D6    D(2,1,6,7)            178.1636         estimate D2E/DX2                !
 ! D7    D(9,1,6,5)            179.5437         estimate D2E/DX2                !
 ! D8    D(9,1,6,7)             -1.4044         estimate D2E/DX2                !
 ! D9    D(1,2,3,4)              0.6715         estimate D2E/DX2                !
 ! D10   D(1,2,3,11)          -179.2434         estimate D2E/DX2                !
 ! D11   D(10,2,3,4)          -179.6977         estimate D2E/DX2                !
 ! D12   D(10,2,3,11)            0.3874         estimate D2E/DX2                !
 ! D13   D(2,3,4,5)             -0.5768         estimate D2E/DX2                !
 ! D14   D(2,3,4,12)           179.7718         estimate D2E/DX2                !
 ! D15   D(11,3,4,5)           179.3381         estimate D2E/DX2                !
 ! D16   D(11,3,4,12)           -0.3133         estimate D2E/DX2                !
 ! D17   D(3,4,5,6)             -0.2524         estimate D2E/DX2                !
 ! D18   D(3,4,5,13)          -179.8113         estimate D2E/DX2                !
 ! D19   D(12,4,5,6)           179.399          estimate D2E/DX2                !
 ! D20   D(12,4,5,13)           -0.1599         estimate D2E/DX2                !
 ! D21   D(4,5,6,1)              0.9829         estimate D2E/DX2                !
 ! D22   D(4,5,6,7)           -178.0696         estimate D2E/DX2                !
 ! D23   D(13,5,6,1)          -179.4628         estimate D2E/DX2                !
 ! D24   D(13,5,6,7)             1.4847         estimate D2E/DX2                !
 --------------------------------------------------------------------------------
 Trust Radius=3.00D-01 FncErr=1.00D-07 GrdErr=1.00D-07 EigMax=2.50D+02 EigMin=1.00D-04
 Number of steps in this run=     67 maximum allowed number of steps=    100.
 GradGradGradGradGradGradGradGradGradGradGradGradGradGradGradGradGradGrad

                          Input orientation:                          
 ---------------------------------------------------------------------
 Center     Atomic      Atomic             Coordinates (Angstroms)
 Number     Number       Type             X           Y           Z
 ---------------------------------------------------------------------
      1          6           0        0.221700    1.212100   -0.023100
      2          6           0        1.616900    1.203400    0.019600
      3          6           0        2.306300   -0.009100    0.047500
      4          6           0        1.604900   -1.214400    0.018700
      5          6           0        0.209700   -1.209100   -0.026000
      6          6           0       -0.485900    0.005000   -0.036600
      7          6           0       -1.918500    0.011200   -0.040700
      8          7           0       -3.079900    0.015100   -0.031000
      9          1           0       -0.307400    2.163100   -0.038600
     10          1           0        2.166700    2.141500    0.037200
     11          1           0        3.392900   -0.014600    0.093200
     12          1           0        2.144900   -2.158200    0.036800
     13          1           0       -0.329000   -2.154400   -0.045100
 ---------------------------------------------------------------------
                    Distance matrix (angstroms):
                    1          2          3          4          5
     1  C    0.000000
     2  C    1.395880   0.000000
     3  C    2.416996   1.395065   0.000000
     4  C    2.793366   2.417830   1.394826   0.000000
     5  C    2.421231   2.793286   2.416844   1.395926   0.000000
     6  C    1.399275   2.420969   2.793502   2.421041   1.399289
     7  C    2.454165   3.731492   4.225769   3.730948   2.453280
     8  N    3.511899   4.845054   5.386826   4.843706   3.510008
     9  H    1.088388   2.151126   3.399602   3.881711   3.411639
    10  H    2.156489   1.087484   2.155151   3.402650   3.880768
    11  H    3.402180   2.154789   1.087575   2.154533   3.402029
    12  H    3.880877   3.402857   2.155179   1.087514   2.156324
    13  H    3.411316   3.881434   3.399367   2.151195   1.088189
                    6          7          8          9         10
     6  C    0.000000
     7  C    1.432619   0.000000
     8  N    2.594026   1.161447   0.000000
     9  H    2.165470   2.688182   3.507238   0.000000
    10  H    3.406812   4.607939   5.661540   2.475355   0.000000
    11  H    3.881021   5.313150   6.474060   4.295575   2.481022
    12  H    3.406748   4.606899   5.659184   4.969215   4.299755
    13  H    2.165109   2.686327   3.503481   4.317559   4.968908
                   11         12         13
    11  H    0.000000
    12  H    2.481070   0.000000
    13  H    4.295394   2.475258   0.000000
 Stoichiometry    C7H5N
 Framework group  C1[X(C7H5N)]
 Deg. of freedom    33
 Full point group                 C1      NOp   1
 Largest Abelian subgroup         C1      NOp   1
 Largest concise Abelian subgroup C1      NOp   1
                         Standard orientation:                         
 ---------------------------------------------------------------------
 Center     Atomic      Atomic             Coordinates (Angstroms)
 Number     Number       Type             X           Y           Z
 ---------------------------------------------------------------------
      1          6           0        0.089456    1.211053   -0.018474
      2          6           0        1.485183    1.208500    0.002068
      3          6           0        2.180260   -0.000945    0.019865
      4          6           0        1.483794   -1.209329    0.003055
      5          6           0        0.088050   -1.210178   -0.019484
      6          6           0       -0.612958    0.000854   -0.019886
      7          6           0       -2.045456    0.000773   -0.001237
      8          7           0       -3.206562   -0.000409    0.026905
      9          1           0       -0.443997    2.159713   -0.026235
     10          1           0        2.031066    2.149014    0.010275
     11          1           0        3.267462   -0.001648    0.048305
     12          1           0        2.028155   -2.150739    0.013238
     13          1           0       -0.446726   -2.157844   -0.029362
 ---------------------------------------------------------------------
 Rotational constants (GHZ):           5.6789308           1.5411922           1.2124015
 Standard basis: STO-3G (5D, 7F)
 There are    45 symmetry adapted cartesian basis functions of A   symmetry.
 There are    45 symmetry adapted basis functions of A   symmetry.
    45 basis functions,   135 primitive gaussians,    45 cartesian basis functions
    27 alpha electrons       27 beta electrons
       nuclear repulsion energy       299.3818552907 Hartrees.
 NAtoms=   13 NActive=   13 NUniq=   13 SFac= 1.00D+00 NAtFMM=   60 NAOKFM=F Big=F
 Integral buffers will be    131072 words long.
 Raffenetti 1 integral format.
 Two-electron integral symmetry is turned on.
 One-electron integrals computed using PRISM.
 NBasis=    45 RedAO= T EigKep=  1.55D-01  NBF=    45
 NBsUse=    45 1.00D-06 EigRej= -1.00D+00 NBFU=    45
 ExpMin= 1.69D-01 ExpMax= 9.91D+01 ExpMxC= 9.91D+01 IAcc=3 IRadAn=         5 AccDes= 0.00D+00
 Harris functional with IExCor=  205 and IRadAn=       5 diagonalized for initial guess.
 HarFok:  IExCor=  205 AccDes= 0.00D+00 IRadAn=         5 IDoV= 1 UseB2=F ITyADJ=14
 ICtDFT=  3500011 ScaDFX=  1.000000  1.000000  1.000000  1.000000
 FoFCou: FMM=F IPFlag=           0 FMFlag=      100000 FMFlg1=           0
         NFxFlg=           0 DoJE=T BraDBF=F KetDBF=T FulRan=T
         wScrn=  0.000000 ICntrl=       500 IOpCl=  0 I1Cent=   200000004 NGrid=           0
         NMat0=    1 NMatS0=      1 NMatT0=    0 NMatD0=    1 NMtDS0=    0 NMtDT0=    0
 Petite list used in FoFCou.
 Requested convergence on RMS density matrix=1.00D-08 within 128 cycles.
 Requested convergence on MAX density matrix=1.00D-06.
 Requested convergence on             energy=1.00D-06.
 No special actions if energy rises.
 Integral accuracy reduced to 1.0D-05 until final iterations.
 Initial convergence to 1.0D-05 achieved.  Increase integral accuracy.
 SCF Done:  E(RHF) =  -318.442987432     A.U. after   15 cycles
            NFock= 15  Conv=0.48D-08     -V/T= 2.0089

 **********************************************************************

            Population analysis using the SCF Density.

 **********************************************************************

 Orbital symmetries:
       Occupied  (A) (A) (A) (A) (A) (A) (A) (A) (A) (A) (A) (A)
                 (A) (A) (A) (A) (A) (A) (A) (A) (A) (A) (A) (A)
                 (A) (A) (A)
       Virtual   (A) (A) (A) (A) (A) (A) (A) (A) (A) (A) (A) (A)
                 (A) (A) (A) (A) (A) (A)
 The electronic state is 1-A.
 Alpha  occ. eigenvalues --  -15.34868 -11.08877 -11.06524 -11.06518 -11.06115
 Alpha  occ. eigenvalues --  -11.05920 -11.05465 -11.05459  -1.16497  -1.11815
 Alpha  occ. eigenvalues --   -0.99604  -0.98189  -0.81913  -0.79693  -0.70658
 Alpha  occ. eigenvalues --   -0.63991  -0.59269  -0.57907  -0.55919  -0.50428
 Alpha  occ. eigenvalues --   -0.48676  -0.46746  -0.45371  -0.42425  -0.40279
 Alpha  occ. eigenvalues --   -0.30483  -0.29408
 Alpha virt. eigenvalues --    0.20406   0.24344   0.35805   0.39370   0.51178
 Alpha virt. eigenvalues --    0.53779   0.60357   0.62548   0.66986   0.70215
 Alpha virt. eigenvalues --    0.71903   0.82797   0.85393   0.86446   0.88205
 Alpha virt. eigenvalues --    1.05949   1.10025   1.36303
          Condensed to atoms (all electrons):
               1          2          3          4          5          6
     1  C    4.762734   0.508263  -0.029907  -0.011035  -0.030579   0.501510
     2  C    0.508263   4.769257   0.505348  -0.029971  -0.011043  -0.029800
     3  C   -0.029907   0.505348   4.762538   0.505483  -0.029916  -0.011102
     4  C   -0.011035  -0.029971   0.505483   4.769220   0.508187  -0.029797
     5  C   -0.030579  -0.011043  -0.029916   0.508187   4.762839   0.501534
     6  C    0.501510  -0.029800  -0.011102  -0.029797   0.501534   4.708673
     7  C   -0.031537   0.000963   0.000015   0.000964  -0.031611   0.418262
     8  N   -0.000137  -0.000001   0.000000  -0.000001  -0.000141  -0.010143
     9  H    0.393723  -0.024890   0.001362   0.000032   0.001265  -0.024421
    10  H   -0.025085   0.394575  -0.025154   0.001354   0.000026   0.001330
    11  H    0.001371  -0.025137   0.393796  -0.025150   0.001372   0.000029
    12  H    0.000026   0.001354  -0.025144   0.394569  -0.025099   0.001330
    13  H    0.001266   0.000033   0.001363  -0.024881   0.393775  -0.024442
               7          8          9         10         11         12
     1  C   -0.031537  -0.000137   0.393723  -0.025085   0.001371   0.000026
     2  C    0.000963  -0.000001  -0.024890   0.394575  -0.025137   0.001354
     3  C    0.000015   0.000000   0.001362  -0.025154   0.393796  -0.025144
     4  C    0.000964  -0.000001   0.000032   0.001354  -0.025150   0.394569
     5  C   -0.031611  -0.000141   0.001265   0.000026   0.001372  -0.025099
     6  C    0.418262  -0.010143  -0.024421   0.001330   0.000029   0.001330
     7  C    4.859444   0.721776  -0.003426  -0.000017   0.000001  -0.000017
     8  N    0.721776   6.480438   0.000044   0.000000  -0.000000   0.000000
     9  H   -0.003426   0.000044   0.581117  -0.003638  -0.000031   0.000002
    10  H   -0.000017   0.000000  -0.003638   0.588272  -0.003580  -0.000031
    11  H    0.000001  -0.000000  -0.000031  -0.003580   0.588593  -0.003582
    12  H   -0.000017   0.000000   0.000002  -0.000031  -0.003582   0.588287
    13  H   -0.003439   0.000044  -0.000031   0.000002  -0.000031  -0.003638
              13
     1  C    0.001266
     2  C    0.000033
     3  C    0.001363
     4  C   -0.024881
     5  C    0.393775
     6  C   -0.024442
     7  C   -0.003439
     8  N    0.000044
     9  H   -0.000031
    10  H    0.000002
    11  H   -0.000031
    12  H   -0.003638
    13  H    0.581061
 Mulliken charges:
               1
     1  C   -0.040614
     2  C   -0.058951
     3  C   -0.048681
     4  C   -0.058974
     5  C   -0.040610
     6  C   -0.002962
     7  C    0.068624
     8  N   -0.191879
     9  H    0.078891
    10  H    0.071946
    11  H    0.072349
    12  H    0.071943
    13  H    0.078919
 Sum of Mulliken charges =  -0.00000
 Mulliken charges with hydrogens summed into heavy atoms:
               1
     1  C    0.038278
     2  C    0.012995
     3  C    0.023668
     4  C    0.012969
     5  C    0.038309
     6  C   -0.002962
     7  C    0.068624
     8  N   -0.191879
 Electronic spatial extent (au):  <R**2>=            912.4173
 Charge=              0.0000 electrons
 Dipole moment (field-independent basis, Debye):
    X=              3.6402    Y=              0.0011    Z=             -0.0373  Tot=              3.6404
 Quadrupole moment (field-independent basis, Debye-Ang):
   XX=            -52.7185   YY=            -38.5216   ZZ=            -43.6883
   XY=             -0.0030   XZ=              0.2334   YZ=              0.0005
 Traceless Quadrupole moment (field-independent basis, Debye-Ang):
   XX=             -7.7423   YY=              6.4545   ZZ=              1.2879
   XY=             -0.0030   XZ=              0.2334   YZ=              0.0005
 Octapole moment (field-independent basis, Debye-Ang**2):
  XXX=             57.1918  YYY=              0.0012  ZZZ=              0.0744  XYY=             -0.0994
  XXY=              0.0127  XXZ=             -0.3683  XZZ=             -3.5055  YZZ=             -0.0007
  YYZ=             -0.0228  XYZ=             -0.0075
 Hexadecapole moment (field-independent basis, Debye-Ang**3):
 XXXX=           -993.0428 YYYY=           -260.2353 ZZZZ=            -34.6404 XXXY=             -0.0428
 XXXZ=              2.8453 YYYX=              0.0018 YYYZ=              0.0018 ZZZX=             -0.2021
 ZZZY=              0.0003 XXYY=           -173.8417 XXZZ=           -145.1089 YYZZ=            -55.6743
 XXYZ=             -0.0101 YYXZ=              0.1115 ZZXY=              0.0008
 N-N= 2.993818552907D+02 E-N=-1.341111274169D+03  KE= 3.156419136013D+02
 Calling FoFJK, ICntrl=      2127 FMM=F ISym2X=0 I1Cent= 0 IOpClX= 0 NMat=1 NMatS=1 NMatT=0.
 ***** Axes restored to original set *****
 -------------------------------------------------------------------
 Center     Atomic                   Forces (Hartrees/Bohr)
 Number     Number              X              Y              Z
 -------------------------------------------------------------------
      1        6           0.011926467    0.001889644    0.000900814
      2        6          -0.005816969   -0.005405633   -0.000082591
      3        6          -0.005305386    0.000162352   -0.000363351
      4        6          -0.005882536    0.005227533   -0.000163508
      5        6           0.011968666   -0.001751695    0.000978318
      6        6           0.028277393   -0.000213178    0.000252597
      7        6          -0.041150923    0.000173360   -0.000577742
      8        7           0.015068127   -0.000011545   -0.000479857
      9        1           0.000212455   -0.005176673    0.000214263
     10        1          -0.002897554   -0.003572018   -0.000151169
     11        1          -0.003789956    0.000032663   -0.000605343
     12        1          -0.002826051    0.003649078   -0.000256516
     13        1           0.000216268    0.004996113    0.000334085
 -------------------------------------------------------------------
 Cartesian Forces:  Max     0.041150923 RMS     0.009166932

 GradGradGradGradGradGradGradGradGradGradGradGradGradGradGradGradGradGrad
 Berny optimization.
 FormGI is forming the generalized inverse of G from B-inverse, IUseBI=4.
 Internal  Forces:  Max     0.026087193 RMS     0.005272258
 Search for a local minimum.
 Step number   1 out of a maximum of   67
 All quantities printed in internal units (Hartrees-Bohrs-Radians)
 Mixed Optimization -- RFO/linear search
 Second derivative matrix not updated -- first step.
 ITU=  0
     Eigenvalues ---    0.02099   0.02109   0.02119   0.02123   0.02137
     Eigenvalues ---    0.02148   0.02150   0.02153   0.02156   0.04847
     Eigenvalues ---    0.04847   0.15999   0.16000   0.16000   0.16000
     Eigenvalues ---    0.16000   0.21999   0.22000   0.23482   0.24996
     Eigenvalues ---    0.35000   0.35023   0.35094   0.35102   0.35105
     Eigenvalues ---    0.40615   0.41932   0.41999   0.45849   0.46130
     Eigenvalues ---    0.46306   0.46439   1.26851
 RFO step:  Lambda=-3.60168408D-03 EMin= 2.09869852D-02
 Linear search not attempted -- first point.
 Iteration  1 RMS(Cart)=  0.02344046 RMS(Int)=  0.00026358
 Iteration  2 RMS(Cart)=  0.00029319 RMS(Int)=  0.00003966
 Iteration  3 RMS(Cart)=  0.00000008 RMS(Int)=  0.00003966
 Variable       Old X    -DE/DX   Delta X   Delta X   Delta X     New X
                                 (Linear)    (Quad)   (Total)
    R1        2.63783  -0.01328   0.00000  -0.02847  -0.02847   2.60936
    R2        2.64425  -0.00472   0.00000  -0.00984  -0.00985   2.63440
    R3        2.05675  -0.00463   0.00000  -0.01309  -0.01309   2.04366
    R4        2.63629  -0.00874   0.00000  -0.01908  -0.01908   2.61721
    R5        2.05505  -0.00455   0.00000  -0.01283  -0.01283   2.04222
    R6        2.63584  -0.00856   0.00000  -0.01867  -0.01867   2.61717
    R7        2.05522  -0.00381   0.00000  -0.01075  -0.01075   2.04447
    R8        2.63792  -0.01327   0.00000  -0.02843  -0.02843   2.60949
    R9        2.05510  -0.00457   0.00000  -0.01290  -0.01290   2.04220
   R10        2.64427  -0.00474   0.00000  -0.00987  -0.00988   2.63439
   R11        2.05638  -0.00445   0.00000  -0.01259  -0.01259   2.04379
   R12        2.70726   0.02609   0.00000   0.06367   0.06367   2.77092
   R13        2.19482  -0.01507   0.00000  -0.01185  -0.01185   2.18297
    A1        2.09481  -0.00019   0.00000  -0.00006  -0.00011   2.09471
    A2        2.08493   0.00249   0.00000   0.01471   0.01470   2.09962
    A3        2.10342  -0.00230   0.00000  -0.01457  -0.01458   2.08884
    A4        2.09435   0.00056   0.00000   0.00157   0.00155   2.09590
    A5        2.09491  -0.00099   0.00000  -0.00512  -0.00513   2.08977
    A6        2.09391   0.00044   0.00000   0.00360   0.00360   2.09751
    A7        2.09685   0.00058   0.00000   0.00085   0.00085   2.09770
    A8        2.09320  -0.00031   0.00000  -0.00051  -0.00051   2.09269
    A9        2.09313  -0.00028   0.00000  -0.00034  -0.00034   2.09279
   A10        2.09437   0.00053   0.00000   0.00151   0.00149   2.09586
   A11        2.09427   0.00040   0.00000   0.00332   0.00331   2.09759
   A12        2.09453  -0.00093   0.00000  -0.00478  -0.00479   2.08974
   A13        2.09484  -0.00021   0.00000  -0.00008  -0.00014   2.09470
   A14        2.08524   0.00245   0.00000   0.01442   0.01441   2.09964
   A15        2.10308  -0.00224   0.00000  -0.01424  -0.01426   2.08882
   A16        2.09098  -0.00126   0.00000  -0.00341  -0.00348   2.08750
   A17        2.09668   0.00052   0.00000   0.00140   0.00137   2.09805
   A18        2.09541   0.00074   0.00000   0.00226   0.00223   2.09764
   A19        3.14062   0.00009   0.00000   0.00171   0.00171   3.14233
   A20        3.12764   0.00062   0.00000   0.01199   0.01199   3.13964
    D1        0.00110  -0.00004   0.00000  -0.00204  -0.00206  -0.00096
    D2       -3.13404  -0.00029   0.00000  -0.01189  -0.01190   3.13724
    D3        3.13524   0.00028   0.00000   0.01131   0.01138  -3.13657
    D4        0.00009   0.00003   0.00000   0.00146   0.00154   0.00163
    D5       -0.01550   0.00046   0.00000   0.01851   0.01847   0.00297
    D6        3.10954   0.00090   0.00000   0.03620   0.03613  -3.13751
    D7        3.13363   0.00012   0.00000   0.00489   0.00499   3.13862
    D8       -0.02451   0.00055   0.00000   0.02258   0.02264  -0.00187
    D9        0.01172  -0.00031   0.00000  -0.01236  -0.01235  -0.00064
   D10       -3.12839  -0.00034   0.00000  -0.01358  -0.01360   3.14120
   D11       -3.13632  -0.00006   0.00000  -0.00255  -0.00250  -3.13882
   D12        0.00676  -0.00009   0.00000  -0.00376  -0.00374   0.00302
   D13       -0.01007   0.00026   0.00000   0.01027   0.01026   0.00019
   D14        3.13761   0.00004   0.00000   0.00151   0.00146   3.13907
   D15        3.13004   0.00029   0.00000   0.01149   0.01150   3.14154
   D16       -0.00547   0.00007   0.00000   0.00272   0.00270  -0.00277
   D17       -0.00440   0.00015   0.00000   0.00622   0.00624   0.00184
   D18       -3.13830  -0.00020   0.00000  -0.00809  -0.00818   3.13671
   D19        3.13110   0.00037   0.00000   0.01502   0.01503  -3.13705
   D20       -0.00279   0.00002   0.00000   0.00070   0.00061  -0.00218
   D21        0.01716  -0.00052   0.00000  -0.02060  -0.02057  -0.00341
   D22       -3.10790  -0.00095   0.00000  -0.03827  -0.03821   3.13707
   D23       -3.13222  -0.00015   0.00000  -0.00601  -0.00611  -3.13832
   D24        0.02591  -0.00058   0.00000  -0.02368  -0.02375   0.00216
         Item               Value     Threshold  Converged?
 Maximum Force            0.026087     0.000450     NO 
 RMS     Force            0.005272     0.000300     NO 
 Maximum Displacement     0.088408     0.001800     NO 
 RMS     Displacement     0.023434     0.001200     NO 
 Predicted change in Energy=-1.826912D-03
 GradGradGradGradGradGradGradGradGradGradGradGradGradGradGradGradGradGrad

                          Input orientation:                          
 ---------------------------------------------------------------------
 Center     Atomic      Atomic             Coordinates (Angstroms)
 Number     Number       Type             X           Y           Z
 ---------------------------------------------------------------------
      1          6           0        0.236159    1.205907   -0.002450
      2          6           0        1.616664    1.194904    0.024668
      3          6           0        2.301273   -0.008967    0.036771
      4          6           0        1.605159   -1.206174    0.022507
      5          6           0        0.224536   -1.203829   -0.004090
      6          6           0       -0.470663    0.004429   -0.018844
      7          6           0       -1.936563    0.011224   -0.052819
      8          7           0       -3.091454    0.017428   -0.077783
      9          1           0       -0.301825    2.143951   -0.016663
     10          1           0        2.160079    2.128998    0.033208
     11          1           0        3.382944   -0.014119    0.057652
     12          1           0        2.139509   -2.145485    0.029595
     13          1           0       -0.322519   -2.136666   -0.019852
 ---------------------------------------------------------------------
                    Distance matrix (angstroms):
                    1          2          3          4          5
     1  C    0.000000
     2  C    1.380815   0.000000
     3  C    2.396279   1.384970   0.000000
     4  C    2.773611   2.401106   1.384948   0.000000
     5  C    2.409765   2.773584   2.396289   1.380882   0.000000
     6  C    1.394065   2.403343   2.772526   2.403395   1.394061
     7  C    2.480026   3.746001   4.238831   3.745868   2.479733
     8  N    3.534285   4.854206   5.394008   4.854424   3.534500
     9  H    1.081459   2.140794   3.378466   3.855056   3.388930
    10  H    2.134206   1.080697   2.142626   3.381039   3.854278
    11  H    3.375549   2.140694   1.081885   2.140735   3.375613
    12  H    3.854296   3.381063   2.142645   1.080688   2.134238
    13  H    3.388985   3.855096   3.378549   2.140923   1.081527
                    6          7          8          9         10
     6  C    0.000000
     7  C    1.466310   0.000000
     8  N    2.621486   1.155178   0.000000
     9  H    2.146175   2.687414   3.508257   0.000000
    10  H    3.381909   4.612466   5.661241   2.462454   0.000000
    11  H    3.854411   5.320714   6.475891   4.270868   2.467580
    12  H    3.381933   4.612217   5.661510   4.935738   4.274535
    13  H    2.146214   2.686942   3.508629   4.280668   4.935787
                   11         12         13
    11  H    0.000000
    12  H    2.467720   0.000000
    13  H    4.271026   2.462540   0.000000
 Stoichiometry    C7H5N
 Framework group  C1[X(C7H5N)]
 Deg. of freedom    33
 Full point group                 C1      NOp   1
 Largest Abelian subgroup         C1      NOp   1
 Largest concise Abelian subgroup C1      NOp   1
                         Standard orientation:                         
 ---------------------------------------------------------------------
 Center     Atomic      Atomic             Coordinates (Angstroms)
 Number     Number       Type             X           Y           Z
 ---------------------------------------------------------------------
      1          6           0        0.103032    1.204876    0.002300
      2          6           0        1.483838    1.200587    0.000109
      3          6           0        2.174398    0.000059   -0.001496
      4          6           0        1.483969   -1.200519   -0.000152
      5          6           0        0.103097   -1.204890    0.002568
      6          6           0       -0.598127   -0.000028    0.001743
      7          6           0       -2.064434   -0.000367   -0.001106
      8          7           0       -3.219611    0.000218   -0.001550
      9          1           0       -0.439690    2.140288   -0.001135
     10          1           0        2.022762    2.137312   -0.003534
     11          1           0        3.256280    0.000168   -0.003580
     12          1           0        2.022911   -2.137223   -0.003763
     13          1           0       -0.439625   -2.140379   -0.000934
 ---------------------------------------------------------------------
 Rotational constants (GHZ):           5.7511101           1.5344411           1.2112676
 Standard basis: STO-3G (5D, 7F)
 There are    45 symmetry adapted cartesian basis functions of A   symmetry.
 There are    45 symmetry adapted basis functions of A   symmetry.
    45 basis functions,   135 primitive gaussians,    45 cartesian basis functions
    27 alpha electrons       27 beta electrons
       nuclear repulsion energy       300.1463222587 Hartrees.
 NAtoms=   13 NActive=   13 NUniq=   13 SFac= 1.00D+00 NAtFMM=   60 NAOKFM=F Big=F
 Integral buffers will be    131072 words long.
 Raffenetti 1 integral format.
 Two-electron integral symmetry is turned on.
 One-electron integrals computed using PRISM.
 NBasis=    45 RedAO= T EigKep=  1.53D-01  NBF=    45
 NBsUse=    45 1.00D-06 EigRej= -1.00D+00 NBFU=    45
 Initial guess from the checkpoint file:  "Benzonitrile_roughopt.chk"
 B after Tr=     0.000000   -0.000000   -0.000000
         Rot=    1.000000    0.000005    0.000023   -0.000150 Ang=   0.02 deg.
 ExpMin= 1.69D-01 ExpMax= 9.91D+01 ExpMxC= 9.91D+01 IAcc=3 IRadAn=         5 AccDes= 0.00D+00
 Harris functional with IExCor=  205 and IRadAn=       5 diagonalized for initial guess.
 HarFok:  IExCor=  205 AccDes= 0.00D+00 IRadAn=         5 IDoV= 1 UseB2=F ITyADJ=14
 ICtDFT=  3500011 ScaDFX=  1.000000  1.000000  1.000000  1.000000
 FoFCou: FMM=F IPFlag=           0 FMFlag=      100000 FMFlg1=           0
         NFxFlg=           0 DoJE=T BraDBF=F KetDBF=T FulRan=T
         wScrn=  0.000000 ICntrl=       500 IOpCl=  0 I1Cent=   200000004 NGrid=           0
         NMat0=    1 NMatS0=      1 NMatT0=    0 NMatD0=    1 NMtDS0=    0 NMtDT0=    0
 Petite list used in FoFCou.
 Requested convergence on RMS density matrix=1.00D-08 within 128 cycles.
 Requested convergence on MAX density matrix=1.00D-06.
 Requested convergence on             energy=1.00D-06.
 No special actions if energy rises.
 Integral accuracy reduced to 1.0D-05 until final iterations.
 Initial convergence to 1.0D-05 achieved.  Increase integral accuracy.
 SCF Done:  E(RHF) =  -318.444357338     A.U. after   14 cycles
            NFock= 14  Conv=0.48D-08     -V/T= 2.0086
 Calling FoFJK, ICntrl=      2127 FMM=F ISym2X=0 I1Cent= 0 IOpClX= 0 NMat=1 NMatS=1 NMatT=0.
 ***** Axes restored to original set *****
 -------------------------------------------------------------------
 Center     Atomic                   Forces (Hartrees/Bohr)
 Number     Number              X              Y              Z
 -------------------------------------------------------------------
      1        6          -0.004728662    0.001017827   -0.000625954
      2        6           0.002129542    0.001375864   -0.000054474
      3        6           0.002957730   -0.000011833    0.000278861
      4        6           0.002052237   -0.001398012    0.000035005
      5        6          -0.004675183   -0.000995501   -0.000724468
      6        6          -0.002251870   -0.000083316    0.000141762
      7        6           0.007617341    0.000077958    0.000453054
      8        7          -0.004397853   -0.000018778   -0.000197850
      9        1          -0.000898283    0.001321944    0.000194424
     10        1           0.000915978    0.001299909    0.000182665
     11        1           0.001238469   -0.000012584   -0.000060143
     12        1           0.000914917   -0.001313182    0.000164036
     13        1          -0.000874362   -0.001260295    0.000213083
 -------------------------------------------------------------------
 Cartesian Forces:  Max     0.007617341 RMS     0.002044242

 GradGradGradGradGradGradGradGradGradGradGradGradGradGradGradGradGradGrad
 Berny optimization.
 Using GEDIIS/GDIIS optimizer.
 FormGI is forming the generalized inverse of G from B-inverse, IUseBI=4.
 Internal  Forces:  Max     0.005135951 RMS     0.001522658
 Search for a local minimum.
 Step number   2 out of a maximum of   67
 All quantities printed in internal units (Hartrees-Bohrs-Radians)
 Mixed Optimization -- RFO/linear search
 Update second derivatives using D2CorX and points    1    2
 DE= -1.37D-03 DEPred=-1.83D-03 R= 7.50D-01
 TightC=F SS=  1.41D+00  RLast= 1.20D-01 DXNew= 5.0454D-01 3.6080D-01
 Trust test= 7.50D-01 RLast= 1.20D-01 DXMaxT set to 3.61D-01
 ITU=  1  0
 Use linear search instead of GDIIS.
     Eigenvalues ---    0.02100   0.02110   0.02119   0.02135   0.02138
     Eigenvalues ---    0.02149   0.02151   0.02155   0.02161   0.04842
     Eigenvalues ---    0.04848   0.15834   0.16000   0.16000   0.16000
     Eigenvalues ---    0.16008   0.21988   0.22000   0.23462   0.24999
     Eigenvalues ---    0.35009   0.35048   0.35096   0.35103   0.35593
     Eigenvalues ---    0.39724   0.41888   0.42200   0.45850   0.46191
     Eigenvalues ---    0.46439   0.56764   1.29410
 RFO step:  Lambda=-6.46901934D-05 EMin= 2.09951302D-02
 Quartic linear search produced a step of -0.19115.
 Iteration  1 RMS(Cart)=  0.00452569 RMS(Int)=  0.00001393
 Iteration  2 RMS(Cart)=  0.00001173 RMS(Int)=  0.00001037
 Iteration  3 RMS(Cart)=  0.00000000 RMS(Int)=  0.00001037
 Variable       Old X    -DE/DX   Delta X   Delta X   Delta X     New X
                                 (Linear)    (Quad)   (Total)
    R1        2.60936   0.00514   0.00544   0.00303   0.00848   2.61784
    R2        2.63440   0.00140   0.00188   0.00025   0.00214   2.63654
    R3        2.04366   0.00159   0.00250   0.00095   0.00345   2.04711
    R4        2.61721   0.00372   0.00365   0.00267   0.00631   2.62353
    R5        2.04222   0.00159   0.00245   0.00098   0.00343   2.04565
    R6        2.61717   0.00372   0.00357   0.00274   0.00631   2.62348
    R7        2.04447   0.00124   0.00206   0.00061   0.00266   2.04713
    R8        2.60949   0.00508   0.00543   0.00295   0.00838   2.61787
    R9        2.04220   0.00159   0.00247   0.00099   0.00345   2.04565
   R10        2.63439   0.00140   0.00189   0.00025   0.00215   2.63654
   R11        2.04379   0.00153   0.00241   0.00090   0.00331   2.04710
   R12        2.77092  -0.00322  -0.01217   0.00686  -0.00531   2.76561
   R13        2.18297   0.00440   0.00226   0.00033   0.00260   2.18557
    A1        2.09471  -0.00070   0.00002  -0.00280  -0.00278   2.09193
    A2        2.09962   0.00047  -0.00281   0.00507   0.00225   2.10187
    A3        2.08884   0.00023   0.00279  -0.00224   0.00054   2.08938
    A4        2.09590  -0.00002  -0.00030   0.00074   0.00044   2.09634
    A5        2.08977   0.00015   0.00098  -0.00055   0.00043   2.09021
    A6        2.09751  -0.00014  -0.00069  -0.00018  -0.00087   2.09664
    A7        2.09770  -0.00041  -0.00016  -0.00050  -0.00066   2.09704
    A8        2.09269   0.00021   0.00010   0.00027   0.00037   2.09306
    A9        2.09279   0.00020   0.00006   0.00023   0.00030   2.09309
   A10        2.09586  -0.00001  -0.00028   0.00073   0.00045   2.09630
   A11        2.09759  -0.00015  -0.00063  -0.00028  -0.00092   2.09667
   A12        2.08974   0.00016   0.00092  -0.00044   0.00048   2.09022
   A13        2.09470  -0.00068   0.00003  -0.00277  -0.00274   2.09197
   A14        2.09964   0.00046  -0.00275   0.00497   0.00220   2.10185
   A15        2.08882   0.00023   0.00273  -0.00216   0.00055   2.08937
   A16        2.08750   0.00181   0.00066   0.00461   0.00530   2.09279
   A17        2.09805  -0.00096  -0.00026  -0.00258  -0.00284   2.09521
   A18        2.09764  -0.00085  -0.00043  -0.00203  -0.00246   2.09518
   A19        3.14233  -0.00009  -0.00033  -0.00119  -0.00152   3.14081
   A20        3.13964   0.00018  -0.00229   0.00545   0.00316   3.14279
    D1       -0.00096   0.00004   0.00039   0.00107   0.00146   0.00050
    D2        3.13724   0.00016   0.00228   0.00367   0.00594  -3.14000
    D3       -3.13657  -0.00018  -0.00218  -0.00447  -0.00667   3.13995
    D4        0.00163  -0.00006  -0.00029  -0.00188  -0.00219  -0.00056
    D5        0.00297  -0.00012  -0.00353  -0.00083  -0.00435  -0.00139
    D6       -3.13751  -0.00017  -0.00691   0.00095  -0.00594   3.13973
    D7        3.13862   0.00010  -0.00095   0.00470   0.00372  -3.14085
    D8       -0.00187   0.00005  -0.00433   0.00648   0.00213   0.00027
    D9       -0.00064   0.00003   0.00236  -0.00151   0.00085   0.00021
   D10        3.14120   0.00003   0.00260  -0.00178   0.00083  -3.14116
   D11       -3.13882  -0.00009   0.00048  -0.00412  -0.00365   3.14072
   D12        0.00302  -0.00010   0.00072  -0.00438  -0.00367  -0.00065
   D13        0.00019  -0.00001  -0.00196   0.00172  -0.00023  -0.00004
   D14        3.13907   0.00009  -0.00028   0.00357   0.00330  -3.14081
   D15        3.14154  -0.00001  -0.00220   0.00199  -0.00022   3.14133
   D16       -0.00277   0.00009  -0.00052   0.00383   0.00332   0.00056
   D17        0.00184  -0.00007  -0.00119  -0.00149  -0.00268  -0.00084
   D18        3.13671   0.00017   0.00156   0.00490   0.00649  -3.13999
   D19       -3.13705  -0.00017  -0.00287  -0.00333  -0.00620   3.13993
   D20       -0.00218   0.00008  -0.00012   0.00306   0.00296   0.00079
   D21       -0.00341   0.00014   0.00393   0.00104   0.00496   0.00155
   D22        3.13707   0.00018   0.00730  -0.00073   0.00655  -3.13956
   D23       -3.13832  -0.00011   0.00117  -0.00534  -0.00414   3.14072
   D24        0.00216  -0.00006   0.00454  -0.00711  -0.00255  -0.00039
         Item               Value     Threshold  Converged?
 Maximum Force            0.005136     0.000450     NO 
 RMS     Force            0.001523     0.000300     NO 
 Maximum Displacement     0.011669     0.001800     NO 
 RMS     Displacement     0.004525     0.001200     NO 
 Predicted change in Energy=-1.117734D-04
 GradGradGradGradGradGradGradGradGradGradGradGradGradGradGradGradGradGrad

                          Input orientation:                          
 ---------------------------------------------------------------------
 Center     Atomic      Atomic             Coordinates (Angstroms)
 Number     Number       Type             X           Y           Z
 ---------------------------------------------------------------------
      1          6           0        0.233124    1.208866   -0.006661
      2          6           0        1.618064    1.197574    0.022852
      3          6           0        2.304602   -0.009024    0.036826
      4          6           0        1.606356   -1.208832    0.021034
      5          6           0        0.221359   -1.206536   -0.008688
      6          6           0       -0.471175    0.004579   -0.021720
      7          6           0       -1.934372    0.011712   -0.050537
      8          7           0       -3.090668    0.016445   -0.074418
      9          1           0       -0.307807    2.147381   -0.016142
     10          1           0        2.162875    2.132903    0.035993
     11          1           0        3.387629   -0.014299    0.060315
     12          1           0        2.142005   -2.149460    0.032668
     13          1           0       -0.328694   -2.139708   -0.019622
 ---------------------------------------------------------------------
                    Distance matrix (angstroms):
                    1          2          3          4          5
     1  C    0.000000
     2  C    1.385300   0.000000
     3  C    2.403367   1.388312   0.000000
     4  C    2.780612   2.406435   1.388286   0.000000
     5  C    2.415432   2.780561   2.403332   1.385317   0.000000
     6  C    1.395196   2.406271   2.776428   2.406311   1.395197
     7  C    2.476518   3.745858   4.239925   3.745878   2.476501
     8  N    3.531862   4.855582   5.396477   4.855147   3.531222
     9  H    1.083285   2.147704   3.387856   3.863880   3.395413
    10  H    2.140000   1.082512   2.146611   3.387792   3.863073
    11  H    3.384010   2.145088   1.083295   2.145085   3.384000
    12  H    3.863125   3.387809   2.146607   1.082514   2.140022
    13  H    3.395403   3.863822   3.387809   2.147697   1.083276
                    6          7          8          9         10
     6  C    0.000000
     7  C    1.463498   0.000000
     8  N    2.620050   1.156552   0.000000
     9  H    2.149028   2.684768   3.505510   0.000000
    10  H    3.386932   4.614582   5.664918   2.471274   0.000000
    11  H    3.859722   5.323219   6.479771   4.281933   2.472062
    12  H    3.386968   4.614590   5.664228   4.946393   4.282415
    13  H    2.149017   2.684728   3.504354   4.287141   4.946333
                   11         12         13
    11  H    0.000000
    12  H    2.472096   0.000000
    13  H    4.281917   2.471271   0.000000
 Stoichiometry    C7H5N
 Framework group  C1[X(C7H5N)]
 Deg. of freedom    33
 Full point group                 C1      NOp   1
 Largest Abelian subgroup         C1      NOp   1
 Largest concise Abelian subgroup C1      NOp   1
                         Standard orientation:                         
 ---------------------------------------------------------------------
 Center     Atomic      Atomic             Coordinates (Angstroms)
 Number     Number       Type             X           Y           Z
 ---------------------------------------------------------------------
      1          6           0        0.099867    1.207833   -0.000990
      2          6           0        1.485159    1.203080   -0.000017
      3          6           0        2.177528   -0.000262    0.000645
      4          6           0        1.484776   -1.203355    0.000082
      5          6           0        0.099465   -1.207599   -0.001094
      6          6           0       -0.598900    0.000234   -0.000693
      7          6           0       -2.062397    0.000459    0.000645
      8          7           0       -3.218949   -0.000268    0.000595
      9          1           0       -0.445569    2.143784    0.000026
     10          1           0        2.025704    2.140973    0.001244
     11          1           0        3.260822   -0.000423    0.001814
     12          1           0        2.024985   -2.141443    0.001328
     13          1           0       -0.446285   -2.143357   -0.000041
 ---------------------------------------------------------------------
 Rotational constants (GHZ):           5.7263817           1.5338128           1.2097747
 Standard basis: STO-3G (5D, 7F)
 There are    45 symmetry adapted cartesian basis functions of A   symmetry.
 There are    45 symmetry adapted basis functions of A   symmetry.
    45 basis functions,   135 primitive gaussians,    45 cartesian basis functions
    27 alpha electrons       27 beta electrons
       nuclear repulsion energy       299.7692922667 Hartrees.
 NAtoms=   13 NActive=   13 NUniq=   13 SFac= 1.00D+00 NAtFMM=   60 NAOKFM=F Big=F
 Integral buffers will be    131072 words long.
 Raffenetti 1 integral format.
 Two-electron integral symmetry is turned on.
 One-electron integrals computed using PRISM.
 NBasis=    45 RedAO= T EigKep=  1.54D-01  NBF=    45
 NBsUse=    45 1.00D-06 EigRej= -1.00D+00 NBFU=    45
 Initial guess from the checkpoint file:  "Benzonitrile_roughopt.chk"
 B after Tr=     0.000000   -0.000000    0.000000
         Rot=    1.000000    0.000000    0.000000    0.000047 Ang=   0.01 deg.
 Requested convergence on RMS density matrix=1.00D-08 within 128 cycles.
 Requested convergence on MAX density matrix=1.00D-06.
 Requested convergence on             energy=1.00D-06.
 No special actions if energy rises.
 SCF Done:  E(RHF) =  -318.444462200     A.U. after   11 cycles
            NFock= 11  Conv=0.49D-08     -V/T= 2.0087
 Calling FoFJK, ICntrl=      2127 FMM=F ISym2X=0 I1Cent= 0 IOpClX= 0 NMat=1 NMatS=1 NMatT=0.
 ***** Axes restored to original set *****
 -------------------------------------------------------------------
 Center     Atomic                   Forces (Hartrees/Bohr)
 Number     Number              X              Y              Z
 -------------------------------------------------------------------
      1        6           0.000111151    0.000006992    0.000202969
      2        6          -0.000157666   -0.000314010    0.000004538
      3        6          -0.000650630    0.000019555   -0.000048087
      4        6          -0.000175567    0.000314583   -0.000031902
      5        6           0.000100677   -0.000010305    0.000242356
      6        6          -0.000160230    0.000037501   -0.000056264
      7        6           0.000699238   -0.000086953   -0.000152030
      8        7          -0.000010150    0.000040694    0.000061293
      9        1           0.000113925   -0.000096065   -0.000061212
     10        1           0.000040917   -0.000036304   -0.000053540
     11        1          -0.000059687   -0.000000882    0.000008429
     12        1           0.000038920    0.000037161   -0.000046994
     13        1           0.000109102    0.000088034   -0.000069557
 -------------------------------------------------------------------
 Cartesian Forces:  Max     0.000699238 RMS     0.000191036

 GradGradGradGradGradGradGradGradGradGradGradGradGradGradGradGradGradGrad
 Berny optimization.
 Using GEDIIS/GDIIS optimizer.
 FormGI is forming the generalized inverse of G from B-inverse, IUseBI=4.
 Internal  Forces:  Max     0.000687369 RMS     0.000176419
 Search for a local minimum.
 Step number   3 out of a maximum of   67
 All quantities printed in internal units (Hartrees-Bohrs-Radians)
 Mixed Optimization -- En-DIIS/RFO-DIIS
 Update second derivatives using D2CorX and points    1    2    3
 DE= -1.05D-04 DEPred=-1.12D-04 R= 9.38D-01
 TightC=F SS=  1.41D+00  RLast= 2.83D-02 DXNew= 6.0678D-01 8.4864D-02
 Trust test= 9.38D-01 RLast= 2.83D-02 DXMaxT set to 3.61D-01
 ITU=  1  1  0
 Use linear search instead of GDIIS.
     Eigenvalues ---    0.02102   0.02110   0.02119   0.02136   0.02143
     Eigenvalues ---    0.02150   0.02153   0.02156   0.02206   0.04846
     Eigenvalues ---    0.04872   0.15897   0.15996   0.16000   0.16000
     Eigenvalues ---    0.16000   0.22000   0.22065   0.22741   0.25001
     Eigenvalues ---    0.35010   0.35046   0.35093   0.35103   0.35619
     Eigenvalues ---    0.39986   0.41910   0.42113   0.45849   0.46181
     Eigenvalues ---    0.46438   0.61294   1.28980
 RFO step:  Lambda=-4.78285422D-06 EMin= 2.10227197D-02
 Quartic linear search produced a step of -0.06244.
 Iteration  1 RMS(Cart)=  0.00138354 RMS(Int)=  0.00000136
 Iteration  2 RMS(Cart)=  0.00000189 RMS(Int)=  0.00000046
 Iteration  3 RMS(Cart)=  0.00000000 RMS(Int)=  0.00000046
 Variable       Old X    -DE/DX   Delta X   Delta X   Delta X     New X
                                 (Linear)    (Quad)   (Total)
    R1        2.61784  -0.00048  -0.00053  -0.00013  -0.00066   2.61718
    R2        2.63654  -0.00020  -0.00013  -0.00017  -0.00030   2.63624
    R3        2.04711  -0.00014  -0.00022  -0.00003  -0.00025   2.04687
    R4        2.62353  -0.00048  -0.00039  -0.00038  -0.00078   2.62275
    R5        2.04565  -0.00001  -0.00021   0.00031   0.00009   2.04574
    R6        2.62348  -0.00046  -0.00039  -0.00034  -0.00073   2.62275
    R7        2.04713  -0.00006  -0.00017   0.00011  -0.00006   2.04707
    R8        2.61787  -0.00049  -0.00052  -0.00015  -0.00068   2.61719
    R9        2.04565  -0.00001  -0.00022   0.00030   0.00009   2.04574
   R10        2.63654  -0.00022  -0.00013  -0.00020  -0.00033   2.63621
   R11        2.04710  -0.00013  -0.00021  -0.00002  -0.00023   2.04687
   R12        2.76561  -0.00069   0.00033  -0.00216  -0.00183   2.76378
   R13        2.18557   0.00001  -0.00016   0.00027   0.00011   2.18567
    A1        2.09193  -0.00013   0.00017  -0.00072  -0.00055   2.09138
    A2        2.10187   0.00002  -0.00014   0.00013  -0.00002   2.10186
    A3        2.08938   0.00012  -0.00003   0.00060   0.00057   2.08995
    A4        2.09634  -0.00006  -0.00003  -0.00025  -0.00028   2.09606
    A5        2.09021   0.00008  -0.00003   0.00050   0.00048   2.09068
    A6        2.09664  -0.00003   0.00005  -0.00025  -0.00020   2.09644
    A7        2.09704   0.00023   0.00004   0.00077   0.00081   2.09785
    A8        2.09306  -0.00011  -0.00002  -0.00037  -0.00040   2.09266
    A9        2.09309  -0.00012  -0.00002  -0.00040  -0.00041   2.09268
   A10        2.09630  -0.00004  -0.00003  -0.00020  -0.00022   2.09608
   A11        2.09667  -0.00003   0.00006  -0.00028  -0.00022   2.09645
   A12        2.09022   0.00007  -0.00003   0.00047   0.00044   2.09066
   A13        2.09197  -0.00014   0.00017  -0.00077  -0.00060   2.09137
   A14        2.10185   0.00002  -0.00014   0.00016   0.00002   2.10186
   A15        2.08937   0.00012  -0.00003   0.00062   0.00058   2.08995
   A16        2.09279   0.00015  -0.00033   0.00117   0.00084   2.09363
   A17        2.09521  -0.00006   0.00018  -0.00055  -0.00037   2.09484
   A18        2.09518  -0.00009   0.00015  -0.00062  -0.00047   2.09471
   A19        3.14081   0.00009   0.00009   0.00156   0.00166   3.14247
   A20        3.14279  -0.00011  -0.00020  -0.00177  -0.00197   3.14082
    D1        0.00050  -0.00002  -0.00009  -0.00077  -0.00086  -0.00035
    D2       -3.14000  -0.00006  -0.00037  -0.00208  -0.00245   3.14073
    D3        3.13995   0.00006   0.00042   0.00201   0.00243  -3.14081
    D4       -0.00056   0.00002   0.00014   0.00070   0.00083   0.00027
    D5       -0.00139   0.00005   0.00027   0.00195   0.00223   0.00084
    D6        3.13973   0.00007   0.00037   0.00268   0.00305  -3.14041
    D7       -3.14085  -0.00003  -0.00023  -0.00080  -0.00103   3.14131
    D8        0.00027  -0.00001  -0.00013  -0.00008  -0.00021   0.00006
    D9        0.00021  -0.00001  -0.00005  -0.00020  -0.00025  -0.00004
   D10       -3.14116  -0.00002  -0.00005  -0.00063  -0.00069   3.14134
   D11        3.14072   0.00003   0.00023   0.00112   0.00135  -3.14112
   D12       -0.00065   0.00002   0.00023   0.00068   0.00091   0.00026
   D13       -0.00004  -0.00000   0.00001  -0.00003  -0.00001  -0.00005
   D14       -3.14081  -0.00003  -0.00021  -0.00100  -0.00121   3.14116
   D15        3.14133   0.00001   0.00001   0.00041   0.00042  -3.14144
   D16        0.00056  -0.00002  -0.00021  -0.00057  -0.00078  -0.00022
   D17       -0.00084   0.00003   0.00017   0.00122   0.00138   0.00054
   D18       -3.13999  -0.00006  -0.00040  -0.00194  -0.00235   3.14085
   D19        3.13993   0.00006   0.00039   0.00219   0.00258  -3.14067
   D20        0.00079  -0.00003  -0.00018  -0.00097  -0.00115  -0.00037
   D21        0.00155  -0.00006  -0.00031  -0.00218  -0.00249  -0.00094
   D22       -3.13956  -0.00008  -0.00041  -0.00290  -0.00331   3.14032
   D23        3.14072   0.00003   0.00026   0.00096   0.00122  -3.14125
   D24       -0.00039   0.00001   0.00016   0.00024   0.00040   0.00000
         Item               Value     Threshold  Converged?
 Maximum Force            0.000687     0.000450     NO 
 RMS     Force            0.000176     0.000300     YES
 Maximum Displacement     0.003874     0.001800     NO 
 RMS     Displacement     0.001384     0.001200     NO 
 Predicted change in Energy=-2.837150D-06
 GradGradGradGradGradGradGradGradGradGradGradGradGradGradGradGradGradGrad

                          Input orientation:                          
 ---------------------------------------------------------------------
 Center     Atomic      Atomic             Coordinates (Angstroms)
 Number     Number       Type             X           Y           Z
 ---------------------------------------------------------------------
      1          6           0        0.232844    1.208837   -0.004783
      2          6           0        1.617459    1.197495    0.023572
      3          6           0        2.303429   -0.008963    0.036733
      4          6           0        1.605958   -1.208781    0.021610
      5          6           0        0.221289   -1.206863   -0.006638
      6          6           0       -0.470744    0.004326   -0.020511
      7          6           0       -1.932918    0.011248   -0.051957
      8          7           0       -3.089256    0.017730   -0.076112
      9          1           0       -0.307937    2.147271   -0.015899
     10          1           0        2.162813    2.132587    0.034953
     11          1           0        3.386457   -0.014149    0.058678
     12          1           0        2.142338   -2.149066    0.031499
     13          1           0       -0.328431   -2.140071   -0.019245
 ---------------------------------------------------------------------
                    Distance matrix (angstroms):
                    1          2          3          4          5
     1  C    0.000000
     2  C    1.384952   0.000000
     3  C    2.402516   1.387901   0.000000
     4  C    2.780471   2.406305   1.387897   0.000000
     5  C    2.415729   2.780493   2.402531   1.384959   0.000000
     6  C    1.395038   2.405450   2.774796   2.405431   1.395020
     7  C    2.475272   3.744071   4.237324   3.743999   2.475168
     8  N    3.529897   4.853344   5.393931   4.853752   3.530462
     9  H    1.083155   2.147273   3.386938   3.863611   3.395641
    10  H    2.140017   1.082561   2.146163   3.387478   3.863053
    11  H    3.383046   2.144450   1.083263   2.144457   3.383064
    12  H    3.863030   3.387482   2.146164   1.082560   2.140007
    13  H    3.395648   3.863634   3.386952   2.147285   1.083157
                    6          7          8          9         10
     6  C    0.000000
     7  C    1.462528   0.000000
     8  N    2.619136   1.156608   0.000000
     9  H    2.149125   2.684112   3.503470   0.000000
    10  H    3.386473   4.613313   5.662966   2.471318   0.000000
    11  H    3.858059   5.320586   6.477194   4.280870   2.471102
    12  H    3.386444   4.613202   5.663581   4.946171   4.281704
    13  H    2.149115   2.683956   3.504496   4.287392   4.946195
                   11         12         13
    11  H    0.000000
    12  H    2.471122   0.000000
    13  H    4.280889   2.471306   0.000000
 Stoichiometry    C7H5N
 Framework group  C1[X(C7H5N)]
 Deg. of freedom    33
 Full point group                 C1      NOp   1
 Largest Abelian subgroup         C1      NOp   1
 Largest concise Abelian subgroup C1      NOp   1
                         Standard orientation:                         
 ---------------------------------------------------------------------
 Center     Atomic      Atomic             Coordinates (Angstroms)
 Number     Number       Type             X           Y           Z
 ---------------------------------------------------------------------
      1          6           0        0.099263    1.207779    0.000599
      2          6           0        1.484207    1.203272   -0.000021
      3          6           0        2.176250    0.000215   -0.000383
      4          6           0        1.484547   -1.203032   -0.000076
      5          6           0        0.099597   -1.207950    0.000658
      6          6           0       -0.598546   -0.000192    0.000432
      7          6           0       -2.061074   -0.000491   -0.000413
      8          7           0       -3.217681    0.000281   -0.000368
      9          1           0       -0.446258    2.143530    0.000154
     10          1           0        2.025058    2.141046   -0.000701
     11          1           0        3.259512    0.000376   -0.001103
     12          1           0        2.025651   -2.140658   -0.000763
     13          1           0       -0.445653   -2.143862    0.000204
 ---------------------------------------------------------------------
 Rotational constants (GHZ):           5.7261998           1.5352251           1.2106448
 Standard basis: STO-3G (5D, 7F)
 There are    45 symmetry adapted cartesian basis functions of A   symmetry.
 There are    45 symmetry adapted basis functions of A   symmetry.
    45 basis functions,   135 primitive gaussians,    45 cartesian basis functions
    27 alpha electrons       27 beta electrons
       nuclear repulsion energy       299.8461017797 Hartrees.
 NAtoms=   13 NActive=   13 NUniq=   13 SFac= 1.00D+00 NAtFMM=   60 NAOKFM=F Big=F
 Integral buffers will be    131072 words long.
 Raffenetti 1 integral format.
 Two-electron integral symmetry is turned on.
 One-electron integrals computed using PRISM.
 NBasis=    45 RedAO= T EigKep=  1.54D-01  NBF=    45
 NBsUse=    45 1.00D-06 EigRej= -1.00D+00 NBFU=    45
 Initial guess from the checkpoint file:  "Benzonitrile_roughopt.chk"
 B after Tr=     0.000000    0.000000    0.000000
         Rot=    1.000000    0.000000   -0.000000   -0.000071 Ang=   0.01 deg.
 Requested convergence on RMS density matrix=1.00D-08 within 128 cycles.
 Requested convergence on MAX density matrix=1.00D-06.
 Requested convergence on             energy=1.00D-06.
 No special actions if energy rises.
 SCF Done:  E(RHF) =  -318.444464149     A.U. after    9 cycles
            NFock=  9  Conv=0.69D-08     -V/T= 2.0087
 Calling FoFJK, ICntrl=      2127 FMM=F ISym2X=0 I1Cent= 0 IOpClX= 0 NMat=1 NMatS=1 NMatT=0.
 ***** Axes restored to original set *****
 -------------------------------------------------------------------
 Center     Atomic                   Forces (Hartrees/Bohr)
 Number     Number              X              Y              Z
 -------------------------------------------------------------------
      1        6           0.000061256    0.000009071   -0.000109915
      2        6           0.000024580    0.000073463    0.000011386
      3        6           0.000044201   -0.000001849    0.000001273
      4        6           0.000026070   -0.000084064    0.000029900
      5        6           0.000097816   -0.000007214   -0.000129752
      6        6          -0.000009247   -0.000052811    0.000020489
      7        6          -0.000349337    0.000109138    0.000104107
      8        7           0.000177928   -0.000047876   -0.000036493
      9        1          -0.000008514   -0.000041499    0.000027065
     10        1          -0.000019655   -0.000064989    0.000028347
     11        1          -0.000024838   -0.000001265   -0.000003298
     12        1          -0.000014657    0.000065821    0.000025988
     13        1          -0.000005602    0.000044076    0.000030902
 -------------------------------------------------------------------
 Cartesian Forces:  Max     0.000349337 RMS     0.000081522

 GradGradGradGradGradGradGradGradGradGradGradGradGradGradGradGradGradGrad
 Berny optimization.
 Using GEDIIS/GDIIS optimizer.
 FormGI is forming the generalized inverse of G from B-inverse, IUseBI=4.
 Internal  Forces:  Max     0.000177392 RMS     0.000047125
 Search for a local minimum.
 Step number   4 out of a maximum of   67
 All quantities printed in internal units (Hartrees-Bohrs-Radians)
 Mixed Optimization -- En-DIIS/RFO-DIIS
 Swapping is turned off.
 Update second derivatives using D2CorX and points    1    2    3    4
 DE= -1.95D-06 DEPred=-2.84D-06 R= 6.87D-01
 TightC=F SS=  1.41D+00  RLast= 9.20D-03 DXNew= 6.0678D-01 2.7608D-02
 Trust test= 6.87D-01 RLast= 9.20D-03 DXMaxT set to 3.61D-01
 ITU=  1  1  1  0
     Eigenvalues ---    0.02105   0.02118   0.02119   0.02136   0.02145
     Eigenvalues ---    0.02150   0.02153   0.02158   0.02592   0.04840
     Eigenvalues ---    0.05400   0.15740   0.15966   0.16000   0.16000
     Eigenvalues ---    0.16001   0.21909   0.22007   0.23184   0.25084
     Eigenvalues ---    0.35011   0.35040   0.35103   0.35116   0.35516
     Eigenvalues ---    0.40962   0.41914   0.43120   0.45871   0.46109
     Eigenvalues ---    0.46440   0.59774   1.30032
 En-DIIS/RFO-DIIS/Sim-DIIS IScMMF=       -3 using points:     4    3
 RFO step:  Lambda=-7.58562665D-07.
 DidBck=T Rises=F RFO-DIIS coefs:    0.60886    0.39114
 Iteration  1 RMS(Cart)=  0.00059443 RMS(Int)=  0.00000036
 Iteration  2 RMS(Cart)=  0.00000050 RMS(Int)=  0.00000015
 Variable       Old X    -DE/DX   Delta X   Delta X   Delta X     New X
                                 (Linear)    (Quad)   (Total)
    R1        2.61718   0.00002   0.00026  -0.00029  -0.00003   2.61715
    R2        2.63624   0.00002   0.00012  -0.00011   0.00001   2.63625
    R3        2.04687  -0.00003   0.00010  -0.00019  -0.00009   2.04677
    R4        2.62275  -0.00000   0.00030  -0.00037  -0.00007   2.62269
    R5        2.04574  -0.00007  -0.00004  -0.00011  -0.00014   2.04560
    R6        2.62275  -0.00001   0.00029  -0.00036  -0.00007   2.62267
    R7        2.04707  -0.00002   0.00002  -0.00009  -0.00006   2.04701
    R8        2.61719   0.00002   0.00027  -0.00030  -0.00004   2.61716
    R9        2.04574  -0.00006  -0.00003  -0.00011  -0.00014   2.04560
   R10        2.63621   0.00005   0.00013  -0.00008   0.00005   2.63626
   R11        2.04687  -0.00004   0.00009  -0.00019  -0.00010   2.04677
   R12        2.76378   0.00017   0.00072  -0.00049   0.00023   2.76401
   R13        2.18567  -0.00018  -0.00004  -0.00007  -0.00011   2.18557
    A1        2.09138   0.00004   0.00022  -0.00010   0.00011   2.09149
    A2        2.10186   0.00001   0.00001   0.00005   0.00006   2.10192
    A3        2.08995  -0.00005  -0.00022   0.00005  -0.00017   2.08978
    A4        2.09606   0.00001   0.00011  -0.00012  -0.00001   2.09606
    A5        2.09068   0.00001  -0.00019   0.00028   0.00010   2.09078
    A6        2.09644  -0.00002   0.00008  -0.00017  -0.00009   2.09635
    A7        2.09785  -0.00001  -0.00032   0.00032   0.00000   2.09785
    A8        2.09266   0.00001   0.00016  -0.00015   0.00000   2.09266
    A9        2.09268   0.00000   0.00016  -0.00017  -0.00001   2.09267
   A10        2.09608  -0.00001   0.00009  -0.00013  -0.00004   2.09604
   A11        2.09645  -0.00002   0.00009  -0.00018  -0.00009   2.09636
   A12        2.09066   0.00002  -0.00017   0.00031   0.00013   2.09079
   A13        2.09137   0.00005   0.00023  -0.00010   0.00014   2.09151
   A14        2.10186   0.00000  -0.00001   0.00005   0.00004   2.10190
   A15        2.08995  -0.00005  -0.00023   0.00005  -0.00018   2.08977
   A16        2.09363  -0.00008  -0.00033   0.00012  -0.00021   2.09342
   A17        2.09484   0.00001   0.00014  -0.00013   0.00001   2.09485
   A18        2.09471   0.00007   0.00018   0.00001   0.00020   2.09491
   A19        3.14247  -0.00010  -0.00065  -0.00082  -0.00147   3.14100
   A20        3.14082   0.00007   0.00077   0.00018   0.00095   3.14177
    D1       -0.00035   0.00001   0.00034   0.00011   0.00045   0.00010
    D2        3.14073   0.00003   0.00096   0.00003   0.00099  -3.14147
    D3       -3.14081  -0.00003  -0.00095   0.00009  -0.00086   3.14152
    D4        0.00027  -0.00001  -0.00033   0.00001  -0.00032  -0.00004
    D5        0.00084  -0.00003  -0.00087  -0.00011  -0.00098  -0.00014
    D6       -3.14041  -0.00004  -0.00119  -0.00020  -0.00139   3.14139
    D7        3.14131   0.00001   0.00040  -0.00009   0.00031  -3.14156
    D8        0.00006  -0.00000   0.00008  -0.00018  -0.00009  -0.00004
    D9       -0.00004  -0.00000   0.00010  -0.00012  -0.00002  -0.00007
   D10        3.14134   0.00001   0.00027  -0.00001   0.00026  -3.14159
   D11       -3.14112  -0.00002  -0.00053  -0.00004  -0.00056   3.14150
   D12        0.00026  -0.00001  -0.00036   0.00007  -0.00029  -0.00002
   D13       -0.00005   0.00000   0.00000   0.00013   0.00013   0.00008
   D14        3.14116   0.00002   0.00047   0.00005   0.00052  -3.14150
   D15       -3.14144  -0.00000  -0.00016   0.00002  -0.00015  -3.14158
   D16       -0.00022   0.00001   0.00030  -0.00006   0.00024   0.00002
   D17        0.00054  -0.00002  -0.00054  -0.00012  -0.00066  -0.00012
   D18        3.14085   0.00003   0.00092  -0.00011   0.00081  -3.14153
   D19       -3.14067  -0.00003  -0.00101  -0.00004  -0.00105   3.14146
   D20       -0.00037   0.00001   0.00045  -0.00003   0.00042   0.00006
   D21       -0.00094   0.00004   0.00097   0.00011   0.00109   0.00015
   D22        3.14032   0.00005   0.00130   0.00020   0.00150  -3.14137
   D23       -3.14125  -0.00001  -0.00048   0.00010  -0.00038   3.14156
   D24        0.00000  -0.00000  -0.00015   0.00018   0.00003   0.00003
         Item               Value     Threshold  Converged?
 Maximum Force            0.000177     0.000450     YES
 RMS     Force            0.000047     0.000300     YES
 Maximum Displacement     0.002017     0.001800     NO 
 RMS     Displacement     0.000594     0.001200     YES
 Predicted change in Energy=-3.792828D-07
 GradGradGradGradGradGradGradGradGradGradGradGradGradGradGradGradGradGrad

                          Input orientation:                          
 ---------------------------------------------------------------------
 Center     Atomic      Atomic             Coordinates (Angstroms)
 Number     Number       Type             X           Y           Z
 ---------------------------------------------------------------------
      1          6           0        0.233004    1.208912   -0.005573
      2          6           0        1.617589    1.197477    0.023315
      3          6           0        2.303447   -0.009002    0.036757
      4          6           0        1.605917   -1.208738    0.021410
      5          6           0        0.221281   -1.206670   -0.007501
      6          6           0       -0.470810    0.004521   -0.021016
      7          6           0       -1.933128    0.011687   -0.051267
      8          7           0       -3.089418    0.016663   -0.075354
      9          1           0       -0.307756    2.147307   -0.016112
     10          1           0        2.163044    2.132413    0.035401
     11          1           0        3.386426   -0.014273    0.059359
     12          1           0        2.142268   -2.148945    0.032008
     13          1           0       -0.328563   -2.139752   -0.019527
 ---------------------------------------------------------------------
                    Distance matrix (angstroms):
                    1          2          3          4          5
     1  C    0.000000
     2  C    1.384934   0.000000
     3  C    2.402465   1.387866   0.000000
     4  C    2.780404   2.406244   1.387858   0.000000
     5  C    2.415610   2.780386   2.402453   1.384939   0.000000
     6  C    1.395044   2.405518   2.774891   2.405534   1.395047
     7  C    2.475391   3.744229   4.237540   3.744270   2.475437
     8  N    3.530554   4.853862   5.394091   4.853570   3.530138
     9  H    1.083106   2.147250   3.386863   3.863495   3.395455
    10  H    2.139998   1.082485   2.146013   3.387311   3.862869
    11  H    3.382968   2.144393   1.083229   2.144388   3.382961
    12  H    3.862888   3.387315   2.146010   1.082485   2.140008
    13  H    3.395453   3.863474   3.386848   2.147248   1.083105
                    6          7          8          9         10
     6  C    0.000000
     7  C    1.462648   0.000000
     8  N    2.619200   1.156551   0.000000
     9  H    2.148986   2.684017   3.504397   0.000000
    10  H    3.386487   4.613417   5.663658   2.471382   0.000000
    11  H    3.858120   5.320768   6.477320   4.280784   2.470930
    12  H    3.386504   4.613472   5.663208   4.945980   4.281409
    13  H    2.148987   2.684088   3.503650   4.287111   4.945959
                   11         12         13
    11  H    0.000000
    12  H    2.470931   0.000000
    13  H    4.280774   2.471386   0.000000
 Stoichiometry    C7H5N
 Framework group  C1[X(C7H5N)]
 Deg. of freedom    33
 Full point group                 C1      NOp   1
 Largest Abelian subgroup         C1      NOp   1
 Largest concise Abelian subgroup C1      NOp   1
                         Standard orientation:                         
 ---------------------------------------------------------------------
 Center     Atomic      Atomic             Coordinates (Angstroms)
 Number     Number       Type             X           Y           Z
 ---------------------------------------------------------------------
      1          6           0        0.099636    1.207872   -0.000090
      2          6           0        1.484561    1.203035    0.000017
      3          6           0        2.176290   -0.000163    0.000036
      4          6           0        1.484315   -1.203209    0.000025
      5          6           0        0.099383   -1.207738   -0.000098
      6          6           0       -0.598602    0.000142   -0.000064
      7          6           0       -2.061250    0.000340    0.000085
      8          7           0       -3.217802   -0.000194    0.000036
      9          1           0       -0.445690    2.143681   -0.000037
     10          1           0        2.025690    2.140559    0.000114
     11          1           0        3.259518   -0.000274    0.000124
     12          1           0        2.025243   -2.140850    0.000124
     13          1           0       -0.446141   -2.143430   -0.000044
 ---------------------------------------------------------------------
 Rotational constants (GHZ):           5.7266995           1.5350947           1.2105859
 Standard basis: STO-3G (5D, 7F)
 There are    45 symmetry adapted cartesian basis functions of A   symmetry.
 There are    45 symmetry adapted basis functions of A   symmetry.
    45 basis functions,   135 primitive gaussians,    45 cartesian basis functions
    27 alpha electrons       27 beta electrons
       nuclear repulsion energy       299.8457188472 Hartrees.
 NAtoms=   13 NActive=   13 NUniq=   13 SFac= 1.00D+00 NAtFMM=   60 NAOKFM=F Big=F
 Integral buffers will be    131072 words long.
 Raffenetti 1 integral format.
 Two-electron integral symmetry is turned on.
 One-electron integrals computed using PRISM.
 NBasis=    45 RedAO= T EigKep=  1.54D-01  NBF=    45
 NBsUse=    45 1.00D-06 EigRej= -1.00D+00 NBFU=    45
 Initial guess from the checkpoint file:  "Benzonitrile_roughopt.chk"
 B after Tr=     0.000000   -0.000000    0.000000
         Rot=    1.000000    0.000000   -0.000000    0.000057 Ang=   0.01 deg.
 Requested convergence on RMS density matrix=1.00D-08 within 128 cycles.
 Requested convergence on MAX density matrix=1.00D-06.
 Requested convergence on             energy=1.00D-06.
 No special actions if energy rises.
 SCF Done:  E(RHF) =  -318.444464442     A.U. after    8 cycles
            NFock=  8  Conv=0.72D-08     -V/T= 2.0087
 Calling FoFJK, ICntrl=      2127 FMM=F ISym2X=0 I1Cent= 0 IOpClX= 0 NMat=1 NMatS=1 NMatT=0.
 ***** Axes restored to original set *****
 -------------------------------------------------------------------
 Center     Atomic                   Forces (Hartrees/Bohr)
 Number     Number              X              Y              Z
 -------------------------------------------------------------------
      1        6           0.000019373   -0.000007039    0.000019808
      2        6           0.000002454    0.000037712   -0.000009718
      3        6           0.000051696    0.000005081    0.000009457
      4        6          -0.000006782   -0.000034422   -0.000012206
      5        6           0.000002717    0.000002621    0.000022110
      6        6           0.000008459    0.000036221   -0.000000174
      7        6          -0.000052399   -0.000070634   -0.000025236
      8        7          -0.000003342    0.000031839    0.000009010
      9        1          -0.000014101    0.000010219   -0.000002806
     10        1           0.000001822    0.000003577   -0.000004145
     11        1           0.000006364    0.000000157    0.000001181
     12        1          -0.000000209   -0.000003713   -0.000003991
     13        1          -0.000016052   -0.000011618   -0.000003291
 -------------------------------------------------------------------
 Cartesian Forces:  Max     0.000070634 RMS     0.000021892

 GradGradGradGradGradGradGradGradGradGradGradGradGradGradGradGradGradGrad
 Berny optimization.
 Using GEDIIS/GDIIS optimizer.
 FormGI is forming the generalized inverse of G from B-inverse, IUseBI=4.
 Internal  Forces:  Max     0.000069569 RMS     0.000017692
 Search for a local minimum.
 Step number   5 out of a maximum of   67
 All quantities printed in internal units (Hartrees-Bohrs-Radians)
 Mixed Optimization -- En-DIIS/RFO-DIIS
 Swapping is turned off.
 Update second derivatives using D2CorX and points    1    2    3    4    5
 DE= -2.93D-07 DEPred=-3.79D-07 R= 7.73D-01
 Trust test= 7.73D-01 RLast= 3.90D-03 DXMaxT set to 3.61D-01
 ITU=  0  1  1  1  0
     Eigenvalues ---    0.02105   0.02119   0.02125   0.02136   0.02145
     Eigenvalues ---    0.02150   0.02156   0.02159   0.02525   0.04842
     Eigenvalues ---    0.07755   0.15438   0.15989   0.16000   0.16000
     Eigenvalues ---    0.16005   0.21918   0.22026   0.22376   0.25453
     Eigenvalues ---    0.35011   0.35044   0.35095   0.35104   0.35797
     Eigenvalues ---    0.40944   0.41914   0.42239   0.45883   0.46291
     Eigenvalues ---    0.46487   0.62529   1.29150
 En-DIIS/RFO-DIIS/Sim-DIIS IScMMF=       -3 using points:     5    4    3
 RFO step:  Lambda=-9.63183806D-08.
 DidBck=T Rises=F RFO-DIIS coefs:    0.50632    0.33426    0.15942
 Iteration  1 RMS(Cart)=  0.00017776 RMS(Int)=  0.00000010
 Iteration  2 RMS(Cart)=  0.00000007 RMS(Int)=  0.00000007
 Variable       Old X    -DE/DX   Delta X   Delta X   Delta X     New X
                                 (Linear)    (Quad)   (Total)
    R1        2.61715   0.00003   0.00012  -0.00008   0.00004   2.61719
[...]
     5  C    2.425512   2.788552   2.408918   1.387265   0.000000
     6  C    1.399475   2.409344   2.779770   2.409349   1.399477
     7  C    2.448839   3.715932   4.208830   3.715941   2.448851
     8  N    3.497945   4.821545   5.362315   4.821490   3.497867
     9  H    1.081540   2.151482   3.393744   3.870046   3.402047
    10  H    2.140824   1.082226   2.149333   3.393405   3.870776
    11  H    3.388340   2.147419   1.082493   2.147417   3.388337
    12  H    3.870782   3.393406   2.149333   1.082226   2.140827
    13  H    3.402047   3.870041   3.393740   2.151481   1.081539
                    6          7          8          9         10
     6  C    0.000000
     7  C    1.429059   0.000000
     8  N    2.582545   1.153485   0.000000
     9  H    2.149956   2.663115   3.473510   0.000000
    10  H    3.390083   4.587011   5.632670   2.476502   0.000000
    11  H    3.862264   5.291323   6.444808   4.287596   2.474676
    12  H    3.390088   4.587024   5.632586   4.952272   4.287671
    13  H    2.149958   2.663133   3.473369   4.289486   4.952266
                   11         12         13
    11  H    0.000000
    12  H    2.474674   0.000000
    13  H    4.287592   2.476503   0.000000
 Stoichiometry    C7H5N
 Framework group  C1[X(C7H5N)]
 Deg. of freedom    33
 Full point group                 C1      NOp   1
 Largest Abelian subgroup         C1      NOp   1
 Largest concise Abelian subgroup C1      NOp   1
                         Standard orientation:                         
 ---------------------------------------------------------------------
 Center     Atomic      Atomic             Coordinates (Angstroms)
 Number     Number       Type             X           Y           Z
 ---------------------------------------------------------------------
      1          6           0        0.090108    1.212769   -0.000000
      2          6           0        1.477357    1.206231    0.000000
      3          6           0        2.171459   -0.000030    0.000000
      4          6           0        1.477312   -1.206264    0.000000
      5          6           0        0.090062   -1.212743   -0.000000
      6          6           0       -0.608311    0.000027   -0.000000
      7          6           0       -2.037370    0.000065    0.000001
      8          7           0       -3.190856   -0.000038   -0.000000
      9          1           0       -0.458625    2.144766   -0.000000
     10          1           0        2.017877    2.143809    0.000000
     11          1           0        3.253952   -0.000052    0.000000
     12          1           0        2.017795   -2.143863    0.000000
     13          1           0       -0.458707   -2.144719   -0.000000
 ---------------------------------------------------------------------
 Rotational constants (GHZ):           5.6940739           1.5555139           1.2217537
 Standard basis: def2TZVP (5D, 7F)
 There are   318 symmetry adapted cartesian basis functions of A   symmetry.
 There are   278 symmetry adapted basis functions of A   symmetry.
   278 basis functions,   448 primitive gaussians,   318 cartesian basis functions
    27 alpha electrons       27 beta electrons
       nuclear repulsion energy       300.4480738235 Hartrees.
 NAtoms=   13 NActive=   13 NUniq=   13 SFac= 1.00D+00 NAtFMM=   60 NAOKFM=F Big=F
 Integral buffers will be    131072 words long.
 Raffenetti 2 integral format.
 Two-electron integral symmetry is turned on.
 Nuclear repulsion after empirical dispersion term =      300.4245540139 Hartrees.
 ------------------------------------------------------------------------------
 Polarizable Continuum Model (PCM)
 =================================
 Model                : PCM.
 Atomic radii         : UFF (Universal Force Field).
 Polarization charges : Total charges.
 Charge compensation  : None.
 Solution method      : On-the-fly selection.
 Cavity type          : Scaled VdW (van der Waals Surface) (Alpha=1.100).
 Cavity algorithm     : GePol (No added spheres)
                        Default sphere list used, NSphG=   13.
                        Lebedev-Laikov grids with approx.  5.0 points / Ang**2.
                        Smoothing algorithm: York/Karplus (Gamma=1.0000).
                        Polarization charges: spherical gaussians, with
                                              point-specific exponents (IZeta= 3).
                        Self-potential: point-specific (ISelfS= 7).
                        Self-field    : sphere-specific E.n sum rule (ISelfD= 2).
 Solvent              : Water, Eps=  78.355300 Eps(inf)=   1.777849
 ------------------------------------------------------------------------------
 Spheres list:
 ISph  on   Nord     Re0    Alpha      Xe            Ye            Ze
    1   C      1    1.9255  1.100      0.090108      1.212769     -0.000000
    2   C      2    1.9255  1.100      1.477357      1.206231      0.000000
    3   C      3    1.9255  1.100      2.171459     -0.000030      0.000000
    4   C      4    1.9255  1.100      1.477312     -1.206264      0.000000
    5   C      5    1.9255  1.100      0.090062     -1.212743     -0.000000
    6   C      6    1.9255  1.100     -0.608311      0.000027     -0.000000
    7   C      7    1.9255  1.100     -2.037370      0.000065      0.000001
    8   N      8    1.8300  1.100     -3.190856     -0.000038     -0.000000
    9   H      9    1.4430  1.100     -0.458625      2.144766     -0.000000
   10   H     10    1.4430  1.100      2.017877      2.143809      0.000000
   11   H     11    1.4430  1.100      3.253952     -0.000052      0.000000
   12   H     12    1.4430  1.100      2.017795     -2.143863      0.000000
   13   H     13    1.4430  1.100     -0.458707     -2.144719     -0.000000
 ------------------------------------------------------------------------------
 One-electron integrals computed using PRISM.
   1 Symmetry operations used in ECPInt.
 ECPInt:  NShTT=    5886 NPrTT=   18336 LenC2=    5753 LenP2D=   14505.
 LDataN:  DoStor=T MaxTD1= 6 Len=  172
 NBasis=   278 RedAO= T EigKep=  8.91D-06  NBF=   278
 NBsUse=   278 1.00D-06 EigRej= -1.00D+00 NBFU=   278
 ExpMin= 9.52D-02 ExpMax= 1.97D+04 ExpMxC= 6.73D+02 IAcc=3 IRadAn=         5 AccDes= 0.00D+00
 Harris functional with IExCor=  402 and IRadAn=       5 diagonalized for initial guess.
 HarFok:  IExCor=  402 AccDes= 0.00D+00 IRadAn=         5 IDoV= 1 UseB2=F ITyADJ=14
 ICtDFT=  3500011 ScaDFX=  1.000000  1.000000  1.000000  1.000000
 FoFCou: FMM=F IPFlag=           0 FMFlag=      100000 FMFlg1=           0
         NFxFlg=           0 DoJE=T BraDBF=F KetDBF=T FulRan=T
         wScrn=  0.000000 ICntrl=       500 IOpCl=  0 I1Cent=   200000004 NGrid=           0
         NMat0=    1 NMatS0=      1 NMatT0=    0 NMatD0=    1 NMtDS0=    0 NMtDT0=    0
 Petite list used in FoFCou.
 Requested convergence on RMS density matrix=1.00D-08 within 128 cycles.
 Requested convergence on MAX density matrix=1.00D-06.
 Requested convergence on             energy=1.00D-06.
 No special actions if energy rises.
 Inv3:  Mode=1 IEnd=     4747692.
 Iteration    1 A*A^-1 deviation from unit magnitude is 4.00D-15 for   1232.
 Iteration    1 A*A^-1 deviation from orthogonality  is 2.35D-15 for   1253    741.
 Iteration    1 A^-1*A deviation from unit magnitude is 4.00D-15 for   1232.
 Iteration    1 A^-1*A deviation from orthogonality  is 1.64D-15 for   1087    365.
 Error on total polarization charges =  0.01346
 SCF Done:  E(RB3LYP) =  -324.646097772     A.U. after   12 cycles
            NFock= 12  Conv=0.72D-08     -V/T= 2.0052

 **********************************************************************

            Population analysis using the SCF Density.

 **********************************************************************

 Orbital symmetries:
       Occupied  (A) (A) (A) (A) (A) (A) (A) (A) (A) (A) (A) (A)
                 (A) (A) (A) (A) (A) (A) (A) (A) (A) (A) (A) (A)
                 (A) (A) (A)
       Virtual   (A) (A) (A) (A) (A) (A) (A) (A) (A) (A) (A) (A)
                 (A) (A) (A) (A) (A) (A) (A) (A) (A) (A) (A) (A)
                 (A) (A) (A) (A) (A) (A) (A) (A) (A) (A) (A) (A)
                 (A) (A) (A) (A) (A) (A) (A) (A) (A) (A) (A) (A)
                 (A) (A) (A) (A) (A) (A) (A) (A) (A) (A) (A) (A)
                 (A) (A) (A) (A) (A) (A) (A) (A) (A) (A) (A) (A)
                 (A) (A) (A) (A) (A) (A) (A) (A) (A) (A) (A) (A)
                 (A) (A) (A) (A) (A) (A) (A) (A) (A) (A) (A) (A)
                 (A) (A) (A) (A) (A) (A) (A) (A) (A) (A) (A) (A)
                 (A) (A) (A) (A) (A) (A) (A) (A) (A) (A) (A) (A)
                 (A) (A) (A) (A) (A) (A) (A) (A) (A) (A) (A) (A)
                 (A) (A) (A) (A) (A) (A) (A) (A) (A) (A) (A) (A)
                 (A) (A) (A) (A) (A) (A) (A) (A) (A) (A) (A) (A)
                 (A) (A) (A) (A) (A) (A) (A) (A) (A) (A) (A) (A)
                 (A) (A) (A) (A) (A) (A) (A) (A) (A) (A) (A) (A)
                 (A) (A) (A) (A) (A) (A) (A) (A) (A) (A) (A) (A)
                 (A) (A) (A) (A) (A) (A) (A) (A) (A) (A) (A) (A)
                 (A) (A) (A) (A) (A) (A) (A) (A) (A) (A) (A) (A)
                 (A) (A) (A) (A) (A) (A) (A) (A) (A) (A) (A) (A)
                 (A) (A) (A) (A) (A) (A) (A) (A) (A) (A) (A) (A)
                 (A) (A) (A) (A) (A) (A) (A) (A) (A) (A) (A)
 The electronic state is 1-A.
 Alpha  occ. eigenvalues --  -14.32822 -10.22813 -10.22757 -10.20332 -10.20330
 Alpha  occ. eigenvalues --  -10.19657 -10.19415 -10.19408  -0.92785  -0.88424
 Alpha  occ. eigenvalues --   -0.78953  -0.77235  -0.65848  -0.63159  -0.56888
 Alpha  occ. eigenvalues --   -0.50723  -0.48417  -0.45837  -0.44520  -0.41662
 Alpha  occ. eigenvalues --   -0.39511  -0.37669  -0.37519  -0.36475  -0.35098
 Alpha  occ. eigenvalues --   -0.28066  -0.27678
 Alpha virt. eigenvalues --   -0.06313  -0.03340   0.01734   0.03749   0.06062
 Alpha virt. eigenvalues --    0.06872   0.07783   0.09953   0.11519   0.12182
 Alpha virt. eigenvalues --    0.13111   0.13956   0.18234   0.19055   0.19561
 Alpha virt. eigenvalues --    0.21670   0.21692   0.22564   0.22630   0.23358
 Alpha virt. eigenvalues --    0.24400   0.25224   0.28715   0.29265   0.30099
 Alpha virt. eigenvalues --    0.31214   0.33073   0.33872   0.34017   0.36265
 Alpha virt. eigenvalues --    0.37937   0.38640   0.39457   0.40819   0.41449
 Alpha virt. eigenvalues --    0.41457   0.44843   0.45548   0.46314   0.47011
 Alpha virt. eigenvalues --    0.47321   0.48685   0.49662   0.54534   0.55074
 Alpha virt. eigenvalues --    0.56546   0.58278   0.60137   0.62858   0.64568
 Alpha virt. eigenvalues --    0.66162   0.66758   0.67732   0.70351   0.71319
 Alpha virt. eigenvalues --    0.72687   0.74448   0.74699   0.77746   0.80585
 Alpha virt. eigenvalues --    0.85002   0.85093   0.86583   0.87512   0.88652
 Alpha virt. eigenvalues --    0.90399   0.97928   0.99338   1.02310   1.02653
 Alpha virt. eigenvalues --    1.03336   1.05537   1.09841   1.12794   1.12967
 Alpha virt. eigenvalues --    1.16238   1.17858   1.18348   1.20369   1.21252
 Alpha virt. eigenvalues --    1.22748   1.23000   1.28765   1.29529   1.30532
 Alpha virt. eigenvalues --    1.31885   1.34469   1.36622   1.37347   1.42825
 Alpha virt. eigenvalues --    1.43628   1.45391   1.46089   1.46857   1.50048
 Alpha virt. eigenvalues --    1.52872   1.53883   1.57668   1.58123   1.59166
 Alpha virt. eigenvalues --    1.62723   1.63393   1.67395   1.67928   1.68285
 Alpha virt. eigenvalues --    1.68453   1.73331   1.82314   1.83624   1.84300
 Alpha virt. eigenvalues --    1.87555   1.89218   1.92953   1.93888   1.98544
 Alpha virt. eigenvalues --    2.02152   2.04645   2.07162   2.11249   2.12203
 Alpha virt. eigenvalues --    2.15569   2.20857   2.20896   2.25065   2.26018
 Alpha virt. eigenvalues --    2.28385   2.30394   2.34918   2.41316   2.46423
 Alpha virt. eigenvalues --    2.46771   2.49134   2.49448   2.53048   2.54559
 Alpha virt. eigenvalues --    2.55385   2.60748   2.63024   2.63362   2.64129
 Alpha virt. eigenvalues --    2.64194   2.64345   2.65326   2.69842   2.71948
 Alpha virt. eigenvalues --    2.73106   2.73457   2.75215   2.76496   2.80330
 Alpha virt. eigenvalues --    2.80800   2.81002   2.81969   2.83561   2.85668
 Alpha virt. eigenvalues --    2.91186   2.93811   2.94515   2.97276   2.98834
 Alpha virt. eigenvalues --    3.00469   3.01891   3.03380   3.05134   3.11163
 Alpha virt. eigenvalues --    3.11332   3.11923   3.12460   3.12965   3.13975
 Alpha virt. eigenvalues --    3.15179   3.20316   3.20696   3.22796   3.24793
 Alpha virt. eigenvalues --    3.28248   3.30249   3.30413   3.33202   3.34548
 Alpha virt. eigenvalues --    3.36146   3.36518   3.37840   3.39035   3.39814
 Alpha virt. eigenvalues --    3.43677   3.44212   3.51686   3.51872   3.52442
 Alpha virt. eigenvalues --    3.55725   3.59151   3.64563   3.69434   3.71596
 Alpha virt. eigenvalues --    3.74839   3.76324   3.77197   3.90878   3.92861
 Alpha virt. eigenvalues --    3.95182   3.95531   3.96062   3.99644   4.04221
 Alpha virt. eigenvalues --    4.06341   4.13038   4.13555   4.15018   4.16391
 Alpha virt. eigenvalues --    4.19456   4.20906   4.22033   4.25609   4.27251
 Alpha virt. eigenvalues --    4.28969   4.40193   4.50743   4.54563   4.55182
 Alpha virt. eigenvalues --    4.55539   4.62140   4.62287   4.64693   4.67185
 Alpha virt. eigenvalues --    4.73750   4.78267   4.84173   4.89427   4.94044
 Alpha virt. eigenvalues --    5.06833   5.11271   5.16312   5.21674   5.21700
 Alpha virt. eigenvalues --    5.34662   5.36100   5.40110   5.66105   5.66405
 Alpha virt. eigenvalues --    5.69467   5.91613   6.15562  22.03259  22.53819
 Alpha virt. eigenvalues --   22.56919  22.66937  22.78680  23.16892  23.54242
 Alpha virt. eigenvalues --   32.06497
          Condensed to atoms (all electrons):
               1          2          3          4          5          6
     1  C    4.998731   0.482447  -0.007514  -0.039743  -0.022567   0.465227
     2  C    0.482447   4.907576   0.465921  -0.028715  -0.039741  -0.036185
     3  C   -0.007514   0.465921   4.905866   0.465919  -0.007513  -0.058107
     4  C   -0.039743  -0.028715   0.465919   4.907570   0.482451  -0.036191
     5  C   -0.022567  -0.039741  -0.007513   0.482451   4.998728   0.465246
     6  C    0.465227  -0.036185  -0.058107  -0.036191   0.465246   5.057855
     7  C   -0.064031  -0.001528  -0.003831  -0.001520  -0.064048   0.038132
     8  N    0.002020  -0.000268   0.000013  -0.000267   0.002017  -0.075633
     9  H    0.434648  -0.041453   0.007941  -0.001543   0.007059  -0.047790
    10  H   -0.051165   0.434608  -0.045695   0.008381  -0.002095   0.010712
    11  H    0.007587  -0.043841   0.427189  -0.043841   0.007587  -0.001156
    12  H   -0.002095   0.008382  -0.045695   0.434608  -0.051165   0.010712
    13  H    0.007059  -0.001543   0.007941  -0.041454   0.434647  -0.047790
               7          8          9         10         11         12
     1  C   -0.064031   0.002020   0.434648  -0.051165   0.007587  -0.002095
     2  C   -0.001528  -0.000268  -0.041453   0.434608  -0.043841   0.008382
     3  C   -0.003831   0.000013   0.007941  -0.045695   0.427189  -0.045695
     4  C   -0.001520  -0.000267  -0.001543   0.008381  -0.043841   0.434608
     5  C   -0.064048   0.002017   0.007059  -0.002095   0.007587  -0.051165
     6  C    0.038132  -0.075633  -0.047790   0.010712  -0.001156   0.010712
     7  C    5.272474   1.016490  -0.003168  -0.000139   0.000075  -0.000139
     8  N    1.016490   6.111644   0.001086  -0.000002  -0.000001  -0.000002
     9  H   -0.003168   0.001086   0.500783  -0.006603  -0.000166   0.000048
    10  H   -0.000139  -0.000002  -0.006603   0.513496  -0.005969  -0.000193
    11  H    0.000075  -0.000001  -0.000166  -0.005969   0.512826  -0.005969
    12  H   -0.000139  -0.000002   0.000048  -0.000193  -0.005969   0.513496
    13  H   -0.003167   0.001087  -0.000186   0.000048  -0.000166  -0.006603
              13
     1  C    0.007059
     2  C   -0.001543
     3  C    0.007941
     4  C   -0.041454
     5  C    0.434647
     6  C   -0.047790
     7  C   -0.003167
     8  N    0.001087
     9  H   -0.000186
    10  H    0.000048
    11  H   -0.000166
    12  H   -0.006603
    13  H    0.500784
 Mulliken charges:
               1
     1  C   -0.210603
     2  C   -0.105658
     3  C   -0.112433
     4  C   -0.105654
     5  C   -0.210606
     6  C    0.254969
     7  C   -0.185599
     8  N   -0.058182
     9  H    0.149344
    10  H    0.144615
    11  H    0.145847
    12  H    0.144616
    13  H    0.149343
 Sum of Mulliken charges =  -0.00000
 Mulliken charges with hydrogens summed into heavy atoms:
               1
     1  C   -0.061259
     2  C    0.038958
     3  C    0.033415
     4  C    0.038962
     5  C   -0.061263
     6  C    0.254969
     7  C   -0.185599
     8  N   -0.058182
 Electronic spatial extent (au):  <R**2>=            914.8914
 Charge=             -0.0000 electrons
 Dipole moment (field-independent basis, Debye):
    X=              6.0510    Y=              0.0001    Z=              0.0000  Tot=              6.0510
 Quadrupole moment (field-independent basis, Debye-Ang):
   XX=            -58.9811   YY=            -38.7751   ZZ=            -49.0602
   XY=             -0.0004   XZ=             -0.0000   YZ=             -0.0000
 Traceless Quadrupole moment (field-independent basis, Debye-Ang):
   XX=            -10.0423   YY=             10.1637   ZZ=             -0.1214
   XY=             -0.0004   XZ=             -0.0000   YZ=             -0.0000
 Octapole moment (field-independent basis, Debye-Ang**2):
  XXX=             93.8664  YYY=             -0.0001  ZZZ=              0.0000  XYY=              5.7471
  XXY=              0.0009  XXZ=              0.0000  XZZ=             -1.9025  YZZ=              0.0000
  YYZ=              0.0000  XYZ=             -0.0000
 Hexadecapole moment (field-independent basis, Debye-Ang**3):
 XXXX=          -1128.6782 YYYY=           -263.6347 ZZZZ=            -56.1014 XXXY=             -0.0038
 XXXZ=             -0.0000 YYYX=             -0.0002 YYYZ=             -0.0000 ZZZX=              0.0000
 ZZZY=             -0.0000 XXYY=           -188.6740 XXZZ=           -171.8201 YYZZ=            -65.4776
 XXYZ=             -0.0000 YYXZ=              0.0000 ZZXY=             -0.0000
 N-N= 3.004245540139D+02 E-N=-1.354225536346D+03  KE= 3.229655660197D+02
 1\1\GINC-PHILIP-KOCHERILS-MACBOOK-PRO\SP\RB3LYP\def2TZVP\C7H5N1\PKOCHE
 RIL\08-Jun-2025\0\\# B3LYP/def2TZVP em=GD3BJ scrf=(solvent=water) geom
 =allcheck\\Benzonitrile HF/STO-3G rough geometry optimization\\0,1\C,0
 ,0.2268863374,1.2138444522,-0.0055958992\C,0,1.6137879343,1.2006151036
 ,0.0232555012\C,0,2.3019317226,-0.0089800522,0.0367361505\C,0,1.602142
 536,-1.2118510599,0.0213397842\C,0,0.2151775943,-1.2116382066,-0.00752
 19778\C,0,-0.4772045799,0.0044863809,-0.0210859792\C,0,-1.9059379621,0
 .0114174244,-0.0508108\N,0,-3.0591607043,0.0168786765,-0.0748057165\H,
 0,-0.3172401079,2.1484781614,-0.016270087\H,0,2.1586924189,2.135574279
 2,0.0352433852\H,0,3.3841779869,-0.014222869,0.0592533735\H,0,2.137994
 4084,-2.152045896,0.0318386049\H,0,-0.3379475846,-2.1409563945,-0.0196
 763398\\Version=EM64M-G16RevB.01\State=1-A\HF=-324.6460978\RMSD=7.158e
 -09\Dipole=2.3801085,-0.0114389,0.049521\Quadrupole=-7.4626922,7.55614
 77,-0.0934555,0.0720413,-0.1533643,0.006803\PG=C01 [X(C7H5N1)]\\@


 ALL MY ATTEMPTS TO ADAPT THE THEORETICAL FOUNDATIONS OF PHYSICS
 TO THESE NEW NOTIONS FAILED COMPLETELY. IT WAS AS IF THE GROUND HAD
 BEEN PULLED OUT FROM UNDER ONE WITH NO FIRM FOUNDATION TO BE SEEN ANYWHERE,
 UPON WHICH ONE COULD HAVE BUILT.  -- A.EINSTEIN
 Job cpu time:       0 days  0 hours  0 minutes 40.6 seconds.
 Elapsed time:       0 days  0 hours  0 minutes 40.9 seconds.
 File lengths (MBytes):  RWF=     72 Int=      0 D2E=      0 Chk=      7 Scr=      1
 Normal termination of Gaussian 16 at Sun Jun  8 21:37:38 2025.
